MODEL 1
REMARK VINA RESULT:   -15.153      0.000      0.000
REMARK INTER + INTRA:         -18.419
REMARK INTER:                 -17.241
REMARK INTRA:                  -1.179
REMARK CONF_INDEPENDENT:        2.088
REMARK UNBOUND:                -1.179
REMARK SMILES Cc1cn(-c2cc(NC(=O)c3ccc(C)c(Nc4nccc(-c5cccnc5)n4)c3)cc(C(F)(F)F)c2)cn1
REMARK SMILES IDX 11 1 12 2 13 3 14 4 15 5 16 6 30 7 9 8 10 9 8 10 7 12 6 13
REMARK SMILES IDX 31 14 5 15 32 16 37 17 4 18 3 19 38 20 2 21 39 22 1 23 33 24
REMARK SMILES IDX 34 25 35 26 36 27 17 28 18 30 19 31 29 32 20 33 22 34 21 35
REMARK SMILES IDX 23 36 24 37 28 38 25 39 27 40 26 41
REMARK H PARENT 8 11 17 29
ROOT
ATOM      1  C   UNL     1      27.974   1.858  53.219  1.00  0.00     0.042 A 
ATOM      2  C   UNL     1      27.694   1.347  54.496  1.00  0.00     0.014 A 
ATOM      3  C   UNL     1      28.415   0.275  55.024  1.00  0.00     0.006 A 
ATOM      4  C   UNL     1      29.379  -0.382  54.275  1.00  0.00    -0.027 A 
ATOM      5  C   UNL     1      30.151  -1.555  54.861  1.00  0.00     0.046 C 
ATOM      6  C   UNL     1      29.589   0.055  52.968  1.00  0.00     0.045 A 
ATOM      7  C   UNL     1      28.874   1.149  52.466  1.00  0.00     0.040 A 
ENDROOT
BRANCH   1   8
ATOM      8  C   UNL     1      27.183   2.900  52.536  1.00  0.00     0.255 C 
ATOM      9  O   UNL     1      27.525   3.152  51.406  1.00  0.00    -0.269 OA
ATOM     10  N   UNL     1      26.040   3.264  53.135  1.00  0.00    -0.322 N 
ATOM     11  H   UNL     1      25.838   2.840  54.052  1.00  0.00     0.170 HD
BRANCH  10  12
ATOM     12  C   UNL     1      25.105   4.160  52.634  1.00  0.00     0.044 A 
ATOM     13  C   UNL     1      24.179   4.802  53.493  1.00  0.00     0.052 A 
ATOM     14  C   UNL     1      24.976   4.359  51.242  1.00  0.00     0.039 A 
ATOM     15  C   UNL     1      23.241   5.712  52.999  1.00  0.00     0.049 A 
ATOM     16  C   UNL     1      24.034   5.303  50.742  1.00  0.00     0.060 A 
ATOM     17  C   UNL     1      23.160   5.937  51.628  1.00  0.00     0.039 A 
BRANCH  15  18
ATOM     18  N   UNL     1      22.348   6.385  53.846  1.00  0.00    -0.306 N 
ATOM     19  C   UNL     1      22.038   6.121  55.179  1.00  0.00     0.116 A 
ATOM     20  C   UNL     1      21.524   7.385  53.511  1.00  0.00     0.204 A 
ATOM     21  C   UNL     1      21.062   6.972  55.563  1.00  0.00     0.056 A 
ATOM     22  N   UNL     1      20.777   7.776  54.514  1.00  0.00    -0.242 NA
ATOM     23  C   UNL     1      20.408   7.086  56.919  1.00  0.00     0.068 C 
ENDBRANCH  15  18
BRANCH  16  24
ATOM     24  C   UNL     1      23.961   5.539  49.268  1.00  0.00     0.416 C 
ATOM     25  F   UNL     1      24.751   6.530  48.810  1.00  0.00    -0.166 F 
ATOM     26  F   UNL     1      24.417   4.489  48.594  1.00  0.00    -0.166 F 
ATOM     27  F   UNL     1      22.727   5.911  48.869  1.00  0.00    -0.166 F 
ENDBRANCH  16  24
ENDBRANCH  10  12
ENDBRANCH   1   8
BRANCH   6  28
ATOM     28  N   UNL     1      30.666  -0.483  52.251  1.00  0.00    -0.324 N 
ATOM     29  H   UNL     1      30.525  -1.297  51.636  1.00  0.00     0.170 HD
BRANCH  28  30
ATOM     30  C   UNL     1      31.931   0.093  52.377  1.00  0.00     0.227 A 
ATOM     31  N   UNL     1      32.328   1.060  53.195  1.00  0.00    -0.221 NA
ATOM     32  N   UNL     1      32.732  -0.460  51.430  1.00  0.00    -0.213 NA
ATOM     33  C   UNL     1      33.608   1.464  53.079  1.00  0.00     0.117 A 
ATOM     34  C   UNL     1      33.986  -0.004  51.331  1.00  0.00     0.077 A 
ATOM     35  C   UNL     1      34.442   0.967  52.152  1.00  0.00     0.049 A 
BRANCH  34  36
ATOM     36  C   UNL     1      34.831  -0.665  50.304  1.00  0.00     0.019 A 
ATOM     37  C   UNL     1      36.118  -0.194  49.995  1.00  0.00     0.013 A 
ATOM     38  C   UNL     1      34.352  -1.784  49.595  1.00  0.00     0.121 A 
ATOM     39  C   UNL     1      36.853  -0.837  49.007  1.00  0.00     0.021 A 
ATOM     40  N   UNL     1      35.052  -2.403  48.636  1.00  0.00    -0.264 NA
ATOM     41  C   UNL     1      36.289  -1.948  48.379  1.00  0.00     0.111 A 
ENDBRANCH  34  36
ENDBRANCH  28  30
ENDBRANCH   6  28
TORSDOF 7
ENDMDL
MODEL 2
REMARK VINA RESULT:   -13.835      2.285      3.585
REMARK INTER + INTRA:         -17.144
REMARK INTER:                 -15.923
REMARK INTRA:                  -1.221
REMARK CONF_INDEPENDENT:        2.088
REMARK UNBOUND:                -1.221
REMARK SMILES Cc1cn(-c2cc(NC(=O)c3ccc(C)c(Nc4nccc(-c5cccnc5)n4)c3)cc(C(F)(F)F)c2)cn1
REMARK SMILES IDX 11 1 12 2 13 3 14 4 15 5 16 6 30 7 9 8 10 9 8 10 7 12 6 13
REMARK SMILES IDX 31 14 5 15 32 16 37 17 4 18 3 19 38 20 2 21 39 22 1 23 33 24
REMARK SMILES IDX 34 25 35 26 36 27 17 28 18 30 19 31 29 32 20 33 22 34 21 35
REMARK SMILES IDX 23 36 24 37 28 38 25 39 27 40 26 41
REMARK H PARENT 8 11 17 29
ROOT
ATOM      1  C   UNL     1      28.176   1.468  53.405  1.00  0.00     0.042 A 
ATOM      2  C   UNL     1      27.855   0.803  54.598  1.00  0.00     0.014 A 
ATOM      3  C   UNL     1      28.545  -0.342  55.001  1.00  0.00     0.006 A 
ATOM      4  C   UNL     1      29.519  -0.913  54.198  1.00  0.00    -0.027 A 
ATOM      5  C   UNL     1      30.259  -2.166  54.647  1.00  0.00     0.046 C 
ATOM      6  C   UNL     1      29.771  -0.316  52.964  1.00  0.00     0.045 A 
ATOM      7  C   UNL     1      29.085   0.846  52.589  1.00  0.00     0.040 A 
ENDROOT
BRANCH   1   8
ATOM      8  C   UNL     1      27.419   2.603  52.842  1.00  0.00     0.255 C 
ATOM      9  O   UNL     1      27.738   2.937  51.727  1.00  0.00    -0.269 OA
ATOM     10  N   UNL     1      26.315   2.967  53.511  1.00  0.00    -0.322 N 
ATOM     11  H   UNL     1      26.119   2.475  54.394  1.00  0.00     0.170 HD
BRANCH  10  12
ATOM     12  C   UNL     1      25.412   3.948  53.122  1.00  0.00     0.044 A 
ATOM     13  C   UNL     1      25.067   4.119  51.758  1.00  0.00     0.052 A 
ATOM     14  C   UNL     1      24.909   4.875  54.061  1.00  0.00     0.039 A 
ATOM     15  C   UNL     1      24.152   5.097  51.357  1.00  0.00     0.049 A 
ATOM     16  C   UNL     1      23.960   5.856  53.654  1.00  0.00     0.060 A 
ATOM     17  C   UNL     1      23.625   5.970  52.303  1.00  0.00     0.039 A 
BRANCH  15  18
ATOM     18  N   UNL     1      23.772   5.246  50.015  1.00  0.00    -0.306 N 
ATOM     19  C   UNL     1      22.530   5.600  49.491  1.00  0.00     0.116 A 
ATOM     20  C   UNL     1      24.520   4.984  48.937  1.00  0.00     0.204 A 
ATOM     21  C   UNL     1      22.607   5.535  48.143  1.00  0.00     0.056 A 
ATOM     22  N   UNL     1      23.869   5.179  47.816  1.00  0.00    -0.242 NA
ATOM     23  C   UNL     1      21.527   5.846  47.135  1.00  0.00     0.068 C 
ENDBRANCH  15  18
BRANCH  16  24
ATOM     24  C   UNL     1      23.399   6.786  54.681  1.00  0.00     0.416 C 
ATOM     25  F   UNL     1      24.124   6.890  55.812  1.00  0.00    -0.166 F 
ATOM     26  F   UNL     1      23.396   8.038  54.239  1.00  0.00    -0.166 F 
ATOM     27  F   UNL     1      22.186   6.392  55.121  1.00  0.00    -0.166 F 
ENDBRANCH  16  24
ENDBRANCH  10  12
ENDBRANCH   1   8
BRANCH   6  28
ATOM     28  N   UNL     1      30.858  -0.777  52.210  1.00  0.00    -0.324 N 
ATOM     29  H   UNL     1      30.753  -1.595  51.593  1.00  0.00     0.170 HD
BRANCH  28  30
ATOM     30  C   UNL     1      32.086  -0.118  52.302  1.00  0.00     0.227 A 
ATOM     31  N   UNL     1      32.430   0.896  53.085  1.00  0.00    -0.221 NA
ATOM     32  N   UNL     1      32.909  -0.648  51.361  1.00  0.00    -0.213 NA
ATOM     33  C   UNL     1      33.679   1.377  52.940  1.00  0.00     0.117 A 
ATOM     34  C   UNL     1      34.130  -0.117  51.232  1.00  0.00     0.077 A 
ATOM     35  C   UNL     1      34.533   0.905  52.017  1.00  0.00     0.049 A 
BRANCH  34  36
ATOM     36  C   UNL     1      35.004  -0.755  50.213  1.00  0.00     0.019 A 
ATOM     37  C   UNL     1      36.324  -0.325  50.004  1.00  0.00     0.013 A 
ATOM     38  C   UNL     1      34.519  -1.807  49.413  1.00  0.00     0.121 A 
ATOM     39  C   UNL     1      37.087  -0.942  49.020  1.00  0.00     0.021 A 
ATOM     40  N   UNL     1      35.247  -2.400  48.457  1.00  0.00    -0.264 NA
ATOM     41  C   UNL     1      36.514  -1.987  48.296  1.00  0.00     0.111 A 
ENDBRANCH  34  36
ENDBRANCH  28  30
ENDBRANCH   6  28
TORSDOF 7
ENDMDL
MODEL 3
REMARK VINA RESULT:   -12.389      1.560      3.628
REMARK INTER + INTRA:         -16.060
REMARK INTER:                 -14.477
REMARK INTRA:                  -1.583
REMARK CONF_INDEPENDENT:        2.088
REMARK UNBOUND:                -1.583
REMARK SMILES Cc1cn(-c2cc(NC(=O)c3ccc(C)c(Nc4nccc(-c5cccnc5)n4)c3)cc(C(F)(F)F)c2)cn1
REMARK SMILES IDX 11 1 12 2 13 3 14 4 15 5 16 6 30 7 9 8 10 9 8 10 7 12 6 13
REMARK SMILES IDX 31 14 5 15 32 16 37 17 4 18 3 19 38 20 2 21 39 22 1 23 33 24
REMARK SMILES IDX 34 25 35 26 36 27 17 28 18 30 19 31 29 32 20 33 22 34 21 35
REMARK SMILES IDX 23 36 24 37 28 38 25 39 27 40 26 41
REMARK H PARENT 8 11 17 29
ROOT
ATOM      1  C   UNL     1      27.750   1.652  53.024  1.00  0.00     0.042 A 
ATOM      2  C   UNL     1      27.380   0.989  54.204  1.00  0.00     0.014 A 
ATOM      3  C   UNL     1      28.070  -0.139  54.651  1.00  0.00     0.006 A 
ATOM      4  C   UNL     1      29.094  -0.698  53.904  1.00  0.00    -0.027 A 
ATOM      5  C   UNL     1      29.833  -1.933  54.400  1.00  0.00     0.046 C 
ATOM      6  C   UNL     1      29.399  -0.105  52.679  1.00  0.00     0.045 A 
ATOM      7  C   UNL     1      28.711   1.041  52.260  1.00  0.00     0.040 A 
ENDROOT
BRANCH   1   8
ATOM      8  C   UNL     1      27.003   2.769  52.414  1.00  0.00     0.255 C 
ATOM      9  O   UNL     1      27.354   3.082  51.302  1.00  0.00    -0.269 OA
ATOM     10  N   UNL     1      25.875   3.138  53.040  1.00  0.00    -0.322 N 
ATOM     11  H   UNL     1      25.656   2.662  53.926  1.00  0.00     0.170 HD
BRANCH  10  12
ATOM     12  C   UNL     1      24.977   4.103  52.602  1.00  0.00     0.044 A 
ATOM     13  C   UNL     1      24.094   4.739  53.509  1.00  0.00     0.052 A 
ATOM     14  C   UNL     1      24.840   4.384  51.225  1.00  0.00     0.039 A 
ATOM     15  C   UNL     1      23.194   5.718  53.079  1.00  0.00     0.049 A 
ATOM     16  C   UNL     1      23.938   5.397  50.792  1.00  0.00     0.060 A 
ATOM     17  C   UNL     1      23.107   6.022  51.724  1.00  0.00     0.039 A 
BRANCH  15  18
ATOM     18  N   UNL     1      22.345   6.384  53.975  1.00  0.00    -0.306 N 
ATOM     19  C   UNL     1      22.327   6.332  55.368  1.00  0.00     0.116 A 
ATOM     20  C   UNL     1      21.295   7.154  53.663  1.00  0.00     0.204 A 
ATOM     21  C   UNL     1      21.282   7.069  55.805  1.00  0.00     0.056 A 
ATOM     22  N   UNL     1      20.669   7.601  54.724  1.00  0.00    -0.242 NA
ATOM     23  C   UNL     1      20.862   7.330  57.231  1.00  0.00     0.068 C 
ENDBRANCH  15  18
BRANCH  16  24
ATOM     24  C   UNL     1      23.857   5.716  49.334  1.00  0.00     0.416 C 
ATOM     25  F   UNL     1      24.680   4.995  48.547  1.00  0.00    -0.166 F 
ATOM     26  F   UNL     1      22.664   5.404  48.843  1.00  0.00    -0.166 F 
ATOM     27  F   UNL     1      24.207   6.992  49.068  1.00  0.00    -0.166 F 
ENDBRANCH  16  24
ENDBRANCH  10  12
ENDBRANCH   1   8
BRANCH   6  28
ATOM     28  N   UNL     1      30.531  -0.550  51.986  1.00  0.00    -0.324 N 
ATOM     29  H   UNL     1      30.474  -1.377  51.374  1.00  0.00     0.170 HD
BRANCH  28  30
ATOM     30  C   UNL     1      31.739   0.135  52.132  1.00  0.00     0.227 A 
ATOM     31  N   UNL     1      32.874  -0.027  51.463  1.00  0.00    -0.221 NA
ATOM     32  N   UNL     1      31.602   0.995  53.174  1.00  0.00    -0.213 NA
ATOM     33  C   UNL     1      33.912   0.745  51.838  1.00  0.00     0.117 A 
ATOM     34  C   UNL     1      32.671   1.717  53.530  1.00  0.00     0.077 A 
ATOM     35  C   UNL     1      33.843   1.601  52.869  1.00  0.00     0.049 A 
BRANCH  34  36
ATOM     36  C   UNL     1      32.459   2.667  54.652  1.00  0.00     0.019 A 
ATOM     37  C   UNL     1      33.389   3.677  54.946  1.00  0.00     0.013 A 
ATOM     38  C   UNL     1      31.315   2.568  55.468  1.00  0.00     0.121 A 
ATOM     39  C   UNL     1      33.151   4.521  56.023  1.00  0.00     0.021 A 
ATOM     40  N   UNL     1      31.084   3.374  56.512  1.00  0.00    -0.264 NA
ATOM     41  C   UNL     1      31.977   4.347  56.755  1.00  0.00     0.111 A 
ENDBRANCH  34  36
ENDBRANCH  28  30
ENDBRANCH   6  28
TORSDOF 7
ENDMDL
MODEL 4
REMARK VINA RESULT:   -11.605      3.748     11.747
REMARK INTER + INTRA:         -14.845
REMARK INTER:                 -13.693
REMARK INTRA:                  -1.152
REMARK CONF_INDEPENDENT:        2.088
REMARK UNBOUND:                -1.152
REMARK SMILES Cc1cn(-c2cc(NC(=O)c3ccc(C)c(Nc4nccc(-c5cccnc5)n4)c3)cc(C(F)(F)F)c2)cn1
REMARK SMILES IDX 11 1 12 2 13 3 14 4 15 5 16 6 30 7 9 8 10 9 8 10 7 12 6 13
REMARK SMILES IDX 31 14 5 15 32 16 37 17 4 18 3 19 38 20 2 21 39 22 1 23 33 24
REMARK SMILES IDX 34 25 35 26 36 27 17 28 18 30 19 31 29 32 20 33 22 34 21 35
REMARK SMILES IDX 23 36 24 37 28 38 25 39 27 40 26 41
REMARK H PARENT 8 11 17 29
ROOT
ATOM      1  C   UNL     1      25.923   3.795  51.885  1.00  0.00     0.042 A 
ATOM      2  C   UNL     1      25.277   4.210  50.710  1.00  0.00     0.014 A 
ATOM      3  C   UNL     1      24.143   5.022  50.752  1.00  0.00     0.006 A 
ATOM      4  C   UNL     1      23.561   5.381  51.957  1.00  0.00    -0.027 A 
ATOM      5  C   UNL     1      22.319   6.261  51.987  1.00  0.00     0.046 C 
ATOM      6  C   UNL     1      24.137   4.887  53.126  1.00  0.00     0.045 A 
ATOM      7  C   UNL     1      25.290   4.094  53.063  1.00  0.00     0.040 A 
ENDROOT
BRANCH   1   8
ATOM      8  C   UNL     1      27.045   2.838  51.937  1.00  0.00     0.255 C 
ATOM      9  O   UNL     1      27.779   2.847  50.979  1.00  0.00    -0.269 OA
ATOM     10  N   UNL     1      27.272   2.257  53.125  1.00  0.00    -0.322 N 
ATOM     11  H   UNL     1      26.609   2.470  53.884  1.00  0.00     0.170 HD
BRANCH  10  12
ATOM     12  C   UNL     1      28.318   1.393  53.424  1.00  0.00     0.044 A 
ATOM     13  C   UNL     1      29.626   1.639  52.939  1.00  0.00     0.052 A 
ATOM     14  C   UNL     1      28.076   0.186  54.117  1.00  0.00     0.039 A 
ATOM     15  C   UNL     1      30.686   0.781  53.243  1.00  0.00     0.049 A 
ATOM     16  C   UNL     1      29.162  -0.675  54.445  1.00  0.00     0.060 A 
ATOM     17  C   UNL     1      30.442  -0.378  53.972  1.00  0.00     0.039 A 
BRANCH  15  18
ATOM     18  N   UNL     1      31.993   1.039  52.802  1.00  0.00    -0.306 N 
ATOM     19  C   UNL     1      32.633   0.589  51.648  1.00  0.00     0.116 A 
ATOM     20  C   UNL     1      32.944   1.710  53.462  1.00  0.00     0.204 A 
ATOM     21  C   UNL     1      33.914   1.017  51.681  1.00  0.00     0.056 A 
ATOM     22  N   UNL     1      34.079   1.744  52.809  1.00  0.00    -0.242 NA
ATOM     23  C   UNL     1      34.993   0.800  50.648  1.00  0.00     0.068 C 
ENDBRANCH  15  18
BRANCH  16  24
ATOM     24  C   UNL     1      28.887  -1.915  55.232  1.00  0.00     0.416 C 
ATOM     25  F   UNL     1      28.059  -2.796  54.636  1.00  0.00    -0.166 F 
ATOM     26  F   UNL     1      29.991  -2.637  55.386  1.00  0.00    -0.166 F 
ATOM     27  F   UNL     1      28.275  -1.653  56.405  1.00  0.00    -0.166 F 
ENDBRANCH  16  24
ENDBRANCH  10  12
ENDBRANCH   1   8
BRANCH   6  28
ATOM     28  N   UNL     1      23.667   5.367  54.355  1.00  0.00    -0.324 N 
ATOM     29  H   UNL     1      22.706   5.157  54.661  1.00  0.00     0.170 HD
BRANCH  28  30
ATOM     30  C   UNL     1      24.512   6.131  55.162  1.00  0.00     0.227 A 
ATOM     31  N   UNL     1      25.807   6.380  55.011  1.00  0.00    -0.221 NA
ATOM     32  N   UNL     1      23.791   6.547  56.235  1.00  0.00    -0.213 NA
ATOM     33  C   UNL     1      26.397   7.119  55.969  1.00  0.00     0.117 A 
ATOM     34  C   UNL     1      24.429   7.252  57.177  1.00  0.00     0.077 A 
ATOM     35  C   UNL     1      25.741   7.547  57.060  1.00  0.00     0.049 A 
BRANCH  34  36
ATOM     36  C   UNL     1      23.588   7.714  58.312  1.00  0.00     0.019 A 
ATOM     37  C   UNL     1      24.034   8.704  59.203  1.00  0.00     0.013 A 
ATOM     38  C   UNL     1      22.315   7.154  58.534  1.00  0.00     0.121 A 
ATOM     39  C   UNL     1      23.216   9.078  60.261  1.00  0.00     0.021 A 
ATOM     40  N   UNL     1      21.525   7.505  59.557  1.00  0.00    -0.264 NA
ATOM     41  C   UNL     1      21.966   8.472  60.378  1.00  0.00     0.111 A 
ENDBRANCH  34  36
ENDBRANCH  28  30
ENDBRANCH   6  28
TORSDOF 7
ENDMDL
MODEL 5
REMARK VINA RESULT:   -11.507      4.140     11.152
REMARK INTER + INTRA:         -14.777
REMARK INTER:                 -13.595
REMARK INTRA:                  -1.182
REMARK CONF_INDEPENDENT:        2.088
REMARK UNBOUND:                -1.182
REMARK SMILES Cc1cn(-c2cc(NC(=O)c3ccc(C)c(Nc4nccc(-c5cccnc5)n4)c3)cc(C(F)(F)F)c2)cn1
REMARK SMILES IDX 11 1 12 2 13 3 14 4 15 5 16 6 30 7 9 8 10 9 8 10 7 12 6 13
REMARK SMILES IDX 31 14 5 15 32 16 37 17 4 18 3 19 38 20 2 21 39 22 1 23 33 24
REMARK SMILES IDX 34 25 35 26 36 27 17 28 18 30 19 31 29 32 20 33 22 34 21 35
REMARK SMILES IDX 23 36 24 37 28 38 25 39 27 40 26 41
REMARK H PARENT 8 11 17 29
ROOT
ATOM      1  C   UNL     1      25.845   3.871  52.060  1.00  0.00     0.042 A 
ATOM      2  C   UNL     1      25.256   4.379  50.892  1.00  0.00     0.014 A 
ATOM      3  C   UNL     1      24.138   5.212  50.945  1.00  0.00     0.006 A 
ATOM      4  C   UNL     1      23.515   5.503  52.148  1.00  0.00    -0.027 A 
ATOM      5  C   UNL     1      22.292   6.407  52.191  1.00  0.00     0.046 C 
ATOM      6  C   UNL     1      24.033   4.917  53.302  1.00  0.00     0.045 A 
ATOM      7  C   UNL     1      25.171   4.104  53.230  1.00  0.00     0.040 A 
ENDROOT
BRANCH   1   8
ATOM      8  C   UNL     1      26.945   2.886  52.090  1.00  0.00     0.255 C 
ATOM      9  O   UNL     1      27.630   2.844  51.098  1.00  0.00    -0.269 OA
ATOM     10  N   UNL     1      27.216   2.339  53.284  1.00  0.00    -0.322 N 
ATOM     11  H   UNL     1      26.597   2.595  54.067  1.00  0.00     0.170 HD
BRANCH  10  12
ATOM     12  C   UNL     1      28.253   1.458  53.562  1.00  0.00     0.044 A 
ATOM     13  C   UNL     1      29.563   1.702  53.079  1.00  0.00     0.052 A 
ATOM     14  C   UNL     1      28.001   0.239  54.227  1.00  0.00     0.039 A 
ATOM     15  C   UNL     1      30.616   0.827  53.361  1.00  0.00     0.049 A 
ATOM     16  C   UNL     1      29.079  -0.641  54.533  1.00  0.00     0.060 A 
ATOM     17  C   UNL     1      30.361  -0.346  54.064  1.00  0.00     0.039 A 
BRANCH  15  18
ATOM     18  N   UNL     1      31.924   1.081  52.924  1.00  0.00    -0.306 N 
ATOM     19  C   UNL     1      32.600   0.549  51.828  1.00  0.00     0.116 A 
ATOM     20  C   UNL     1      32.842   1.837  53.539  1.00  0.00     0.204 A 
ATOM     21  C   UNL     1      33.868   1.015  51.846  1.00  0.00     0.056 A 
ATOM     22  N   UNL     1      33.990   1.845  52.906  1.00  0.00    -0.242 NA
ATOM     23  C   UNL     1      34.975   0.737  50.858  1.00  0.00     0.068 C 
ENDBRANCH  15  18
BRANCH  16  24
ATOM     24  C   UNL     1      28.793  -1.896  55.292  1.00  0.00     0.416 C 
ATOM     25  F   UNL     1      27.895  -2.719  54.714  1.00  0.00    -0.166 F 
ATOM     26  F   UNL     1      29.871  -2.669  55.359  1.00  0.00    -0.166 F 
ATOM     27  F   UNL     1      28.258  -1.651  56.506  1.00  0.00    -0.166 F 
ENDBRANCH  16  24
ENDBRANCH  10  12
ENDBRANCH   1   8
BRANCH   6  28
ATOM     28  N   UNL     1      23.524   5.323  54.542  1.00  0.00    -0.324 N 
ATOM     29  H   UNL     1      22.829   4.743  55.034  1.00  0.00     0.170 HD
BRANCH  28  30
ATOM     30  C   UNL     1      23.967   6.521  55.108  1.00  0.00     0.227 A 
ATOM     31  N   UNL     1      23.916   7.747  54.604  1.00  0.00    -0.221 NA
ATOM     32  N   UNL     1      24.564   6.222  56.290  1.00  0.00    -0.213 NA
ATOM     33  C   UNL     1      24.460   8.730  55.348  1.00  0.00     0.117 A 
ATOM     34  C   UNL     1      25.118   7.227  56.978  1.00  0.00     0.077 A 
ATOM     35  C   UNL     1      25.077   8.495  56.517  1.00  0.00     0.049 A 
BRANCH  34  36
ATOM     36  C   UNL     1      25.727   6.854  58.282  1.00  0.00     0.019 A 
ATOM     37  C   UNL     1      24.939   6.475  59.380  1.00  0.00     0.013 A 
ATOM     38  C   UNL     1      27.125   6.885  58.453  1.00  0.00     0.121 A 
ATOM     39  C   UNL     1      25.562   6.161  60.582  1.00  0.00     0.021 A 
ATOM     40  N   UNL     1      27.731   6.591  59.611  1.00  0.00    -0.264 NA
ATOM     41  C   UNL     1      26.955   6.208  60.638  1.00  0.00     0.111 A 
ENDBRANCH  34  36
ENDBRANCH  28  30
ENDBRANCH   6  28
TORSDOF 7
ENDMDL
MODEL 6
REMARK VINA RESULT:   -11.146      1.900      2.215
REMARK INTER + INTRA:         -14.412
REMARK INTER:                 -13.234
REMARK INTRA:                  -1.177
REMARK CONF_INDEPENDENT:        2.088
REMARK UNBOUND:                -1.177
REMARK SMILES Cc1cn(-c2cc(NC(=O)c3ccc(C)c(Nc4nccc(-c5cccnc5)n4)c3)cc(C(F)(F)F)c2)cn1
REMARK SMILES IDX 11 1 12 2 13 3 14 4 15 5 16 6 30 7 9 8 10 9 8 10 7 12 6 13
REMARK SMILES IDX 31 14 5 15 32 16 37 17 4 18 3 19 38 20 2 21 39 22 1 23 33 24
REMARK SMILES IDX 34 25 35 26 36 27 17 28 18 30 19 31 29 32 20 33 22 34 21 35
REMARK SMILES IDX 23 36 24 37 28 38 25 39 27 40 26 41
REMARK H PARENT 8 11 17 29
ROOT
ATOM      1  C   UNL     1      28.248   1.741  52.872  1.00  0.00     0.042 A 
ATOM      2  C   UNL     1      28.140   0.920  54.005  1.00  0.00     0.014 A 
ATOM      3  C   UNL     1      29.017  -0.145  54.217  1.00  0.00     0.006 A 
ATOM      4  C   UNL     1      29.977  -0.484  53.277  1.00  0.00    -0.027 A 
ATOM      5  C   UNL     1      30.921  -1.652  53.519  1.00  0.00     0.046 C 
ATOM      6  C   UNL     1      30.022   0.264  52.101  1.00  0.00     0.045 A 
ATOM      7  C   UNL     1      29.149   1.344  51.918  1.00  0.00     0.040 A 
ENDROOT
BRANCH   1   8
ATOM      8  C   UNL     1      27.291   2.803  52.505  1.00  0.00     0.255 C 
ATOM      9  O   UNL     1      27.098   2.941  51.322  1.00  0.00    -0.269 OA
ATOM     10  N   UNL     1      26.563   3.316  53.509  1.00  0.00    -0.322 N 
ATOM     11  H   UNL     1      26.775   2.979  54.459  1.00  0.00     0.170 HD
BRANCH  10  12
ATOM     12  C   UNL     1      25.552   4.260  53.384  1.00  0.00     0.044 A 
ATOM     13  C   UNL     1      25.539   5.424  54.192  1.00  0.00     0.052 A 
ATOM     14  C   UNL     1      24.449   4.021  52.536  1.00  0.00     0.039 A 
ATOM     15  C   UNL     1      24.531   6.384  54.066  1.00  0.00     0.049 A 
ATOM     16  C   UNL     1      23.434   5.011  52.393  1.00  0.00     0.060 A 
ATOM     17  C   UNL     1      23.477   6.159  53.187  1.00  0.00     0.039 A 
BRANCH  15  18
ATOM     18  N   UNL     1      24.533   7.560  54.831  1.00  0.00    -0.306 N 
ATOM     19  C   UNL     1      23.686   8.663  54.743  1.00  0.00     0.116 A 
ATOM     20  C   UNL     1      25.428   7.908  55.763  1.00  0.00     0.204 A 
ATOM     21  C   UNL     1      24.114   9.596  55.621  1.00  0.00     0.056 A 
ATOM     22  N   UNL     1      25.186   9.092  56.272  1.00  0.00    -0.242 NA
ATOM     23  C   UNL     1      23.512  10.951  55.905  1.00  0.00     0.068 C 
ENDBRANCH  15  18
BRANCH  16  24
ATOM     24  C   UNL     1      22.309   4.758  51.443  1.00  0.00     0.416 C 
ATOM     25  F   UNL     1      21.649   3.599  51.636  1.00  0.00    -0.166 F 
ATOM     26  F   UNL     1      21.342   5.655  51.599  1.00  0.00    -0.166 F 
ATOM     27  F   UNL     1      22.728   4.671  50.163  1.00  0.00    -0.166 F 
ENDBRANCH  16  24
ENDBRANCH  10  12
ENDBRANCH   1   8
BRANCH   6  28
ATOM     28  N   UNL     1      31.083   0.046  51.213  1.00  0.00    -0.324 N 
ATOM     29  H   UNL     1      30.900  -0.304  50.262  1.00  0.00     0.170 HD
BRANCH  28  30
ATOM     30  C   UNL     1      32.390   0.307  51.627  1.00  0.00     0.227 A 
ATOM     31  N   UNL     1      32.811   1.095  52.608  1.00  0.00    -0.221 NA
ATOM     32  N   UNL     1      33.228  -0.344  50.780  1.00  0.00    -0.213 NA
ATOM     33  C   UNL     1      34.143   1.203  52.769  1.00  0.00     0.117 A 
ATOM     34  C   UNL     1      34.544  -0.181  50.959  1.00  0.00     0.077 A 
ATOM     35  C   UNL     1      35.022   0.597  51.955  1.00  0.00     0.049 A 
BRANCH  34  36
ATOM     36  C   UNL     1      35.419  -0.941  50.029  1.00  0.00     0.019 A 
ATOM     37  C   UNL     1      36.746  -0.554  49.786  1.00  0.00     0.013 A 
ATOM     38  C   UNL     1      34.927  -2.073  49.349  1.00  0.00     0.121 A 
ATOM     39  C   UNL     1      37.509  -1.289  48.886  1.00  0.00     0.021 A 
ATOM     40  N   UNL     1      35.655  -2.780  48.475  1.00  0.00    -0.264 NA
ATOM     41  C   UNL     1      36.929  -2.403  48.281  1.00  0.00     0.111 A 
ENDBRANCH  34  36
ENDBRANCH  28  30
ENDBRANCH   6  28
TORSDOF 7
ENDMDL
MODEL 7
REMARK VINA RESULT:   -11.039      3.861     11.721
REMARK INTER + INTRA:         -14.243
REMARK INTER:                 -13.127
REMARK INTRA:                  -1.116
REMARK CONF_INDEPENDENT:        2.088
REMARK UNBOUND:                -1.116
REMARK SMILES Cc1cn(-c2cc(NC(=O)c3ccc(C)c(Nc4nccc(-c5cccnc5)n4)c3)cc(C(F)(F)F)c2)cn1
REMARK SMILES IDX 11 1 12 2 13 3 14 4 15 5 16 6 30 7 9 8 10 9 8 10 7 12 6 13
REMARK SMILES IDX 31 14 5 15 32 16 37 17 4 18 3 19 38 20 2 21 39 22 1 23 33 24
REMARK SMILES IDX 34 25 35 26 36 27 17 28 18 30 19 31 29 32 20 33 22 34 21 35
REMARK SMILES IDX 23 36 24 37 28 38 25 39 27 40 26 41
REMARK H PARENT 8 11 17 29
ROOT
ATOM      1  C   UNL     1      25.707   3.536  51.848  1.00  0.00     0.042 A 
ATOM      2  C   UNL     1      24.855   3.402  50.742  1.00  0.00     0.014 A 
ATOM      3  C   UNL     1      23.527   3.829  50.791  1.00  0.00     0.006 A 
ATOM      4  C   UNL     1      22.975   4.326  51.961  1.00  0.00    -0.027 A 
ATOM      5  C   UNL     1      21.523   4.781  52.003  1.00  0.00     0.046 C 
ATOM      6  C   UNL     1      23.788   4.365  53.093  1.00  0.00     0.045 A 
ATOM      7  C   UNL     1      25.125   3.955  53.016  1.00  0.00     0.040 A 
ENDROOT
BRANCH   1   8
ATOM      8  C   UNL     1      27.080   2.998  51.925  1.00  0.00     0.255 C 
ATOM      9  O   UNL     1      27.642   2.859  50.867  1.00  0.00    -0.269 OA
ATOM     10  N   UNL     1      27.634   2.964  53.146  1.00  0.00    -0.322 N 
ATOM     11  H   UNL     1      27.040   3.250  53.938  1.00  0.00     0.170 HD
BRANCH  10  12
ATOM     12  C   UNL     1      28.935   2.578  53.441  1.00  0.00     0.044 A 
ATOM     13  C   UNL     1      29.595   1.594  52.665  1.00  0.00     0.052 A 
ATOM     14  C   UNL     1      29.586   3.069  54.594  1.00  0.00     0.039 A 
ATOM     15  C   UNL     1      30.908   1.206  52.947  1.00  0.00     0.049 A 
ATOM     16  C   UNL     1      30.932   2.690  54.867  1.00  0.00     0.060 A 
ATOM     17  C   UNL     1      31.556   1.738  54.057  1.00  0.00     0.039 A 
BRANCH  15  18
ATOM     18  N   UNL     1      31.585   0.263  52.159  1.00  0.00    -0.306 N 
ATOM     19  C   UNL     1      31.235  -0.247  50.910  1.00  0.00     0.116 A 
ATOM     20  C   UNL     1      32.684  -0.423  52.496  1.00  0.00     0.204 A 
ATOM     21  C   UNL     1      32.138  -1.194  50.573  1.00  0.00     0.056 A 
ATOM     22  N   UNL     1      33.054  -1.266  51.564  1.00  0.00    -0.242 NA
ATOM     23  C   UNL     1      32.194  -2.016  49.308  1.00  0.00     0.068 C 
ENDBRANCH  15  18
BRANCH  16  24
ATOM     24  C   UNL     1      31.617   3.272  56.060  1.00  0.00     0.416 C 
ATOM     25  F   UNL     1      31.650   2.472  57.145  1.00  0.00    -0.166 F 
ATOM     26  F   UNL     1      32.909   3.465  55.822  1.00  0.00    -0.166 F 
ATOM     27  F   UNL     1      31.004   4.386  56.511  1.00  0.00    -0.166 F 
ENDBRANCH  16  24
ENDBRANCH  10  12
ENDBRANCH   1   8
BRANCH   6  28
ATOM     28  N   UNL     1      23.305   5.011  54.238  1.00  0.00    -0.324 N 
ATOM     29  H   UNL     1      22.334   4.862  54.549  1.00  0.00     0.170 HD
BRANCH  28  30
ATOM     30  C   UNL     1      24.150   5.859  54.957  1.00  0.00     0.227 A 
ATOM     31  N   UNL     1      25.417   6.173  54.714  1.00  0.00    -0.221 NA
ATOM     32  N   UNL     1      23.472   6.285  56.053  1.00  0.00    -0.213 NA
ATOM     33  C   UNL     1      26.019   6.989  55.599  1.00  0.00     0.117 A 
ATOM     34  C   UNL     1      24.122   7.068  56.921  1.00  0.00     0.077 A 
ATOM     35  C   UNL     1      25.406   7.430  56.709  1.00  0.00     0.049 A 
BRANCH  34  36
ATOM     36  C   UNL     1      23.326   7.536  58.086  1.00  0.00     0.019 A 
ATOM     37  C   UNL     1      23.929   8.179  59.179  1.00  0.00     0.013 A 
ATOM     38  C   UNL     1      21.933   7.329  58.129  1.00  0.00     0.121 A 
ATOM     39  C   UNL     1      23.138   8.571  60.251  1.00  0.00     0.021 A 
ATOM     40  N   UNL     1      21.167   7.699  59.164  1.00  0.00    -0.264 NA
ATOM     41  C   UNL     1      21.766   8.334  60.184  1.00  0.00     0.111 A 
ENDBRANCH  34  36
ENDBRANCH  28  30
ENDBRANCH   6  28
TORSDOF 7
ENDMDL
MODEL 8
REMARK VINA RESULT:   -11.007      3.770     11.763
REMARK INTER + INTRA:         -14.419
REMARK INTER:                 -13.095
REMARK INTRA:                  -1.324
REMARK CONF_INDEPENDENT:        2.088
REMARK UNBOUND:                -1.324
REMARK SMILES Cc1cn(-c2cc(NC(=O)c3ccc(C)c(Nc4nccc(-c5cccnc5)n4)c3)cc(C(F)(F)F)c2)cn1
REMARK SMILES IDX 11 1 12 2 13 3 14 4 15 5 16 6 30 7 9 8 10 9 8 10 7 12 6 13
REMARK SMILES IDX 31 14 5 15 32 16 37 17 4 18 3 19 38 20 2 21 39 22 1 23 33 24
REMARK SMILES IDX 34 25 35 26 36 27 17 28 18 30 19 31 29 32 20 33 22 34 21 35
REMARK SMILES IDX 23 36 24 37 28 38 25 39 27 40 26 41
REMARK H PARENT 8 11 17 29
ROOT
ATOM      1  C   UNL     1      26.226   3.374  51.726  1.00  0.00     0.042 A 
ATOM      2  C   UNL     1      25.499   3.667  50.561  1.00  0.00     0.014 A 
ATOM      3  C   UNL     1      24.275   4.335  50.617  1.00  0.00     0.006 A 
ATOM      4  C   UNL     1      23.689   4.661  51.829  1.00  0.00    -0.027 A 
ATOM      5  C   UNL     1      22.350   5.383  51.874  1.00  0.00     0.046 C 
ATOM      6  C   UNL     1      24.356   4.281  52.992  1.00  0.00     0.045 A 
ATOM      7  C   UNL     1      25.596   3.634  52.915  1.00  0.00     0.040 A 
ENDROOT
BRANCH   1   8
ATOM      8  C   UNL     1      27.459   2.564  51.769  1.00  0.00     0.255 C 
ATOM      9  O   UNL     1      28.297   2.852  50.950  1.00  0.00    -0.269 OA
ATOM     10  N   UNL     1      27.617   1.786  52.850  1.00  0.00    -0.322 N 
ATOM     11  H   UNL     1      26.842   1.763  53.528  1.00  0.00     0.170 HD
BRANCH  10  12
ATOM     12  C   UNL     1      28.731   1.008  53.139  1.00  0.00     0.044 A 
ATOM     13  C   UNL     1      30.003   1.332  52.605  1.00  0.00     0.052 A 
ATOM     14  C   UNL     1      28.599  -0.191  53.873  1.00  0.00     0.039 A 
ATOM     15  C   UNL     1      31.131   0.561  52.898  1.00  0.00     0.049 A 
ATOM     16  C   UNL     1      29.753  -0.963  54.189  1.00  0.00     0.060 A 
ATOM     17  C   UNL     1      30.993  -0.591  53.666  1.00  0.00     0.039 A 
BRANCH  15  18
ATOM     18  N   UNL     1      32.402   0.897  52.408  1.00  0.00    -0.306 N 
ATOM     19  C   UNL     1      33.017   0.499  51.222  1.00  0.00     0.116 A 
ATOM     20  C   UNL     1      33.340   1.613  53.039  1.00  0.00     0.204 A 
ATOM     21  C   UNL     1      34.272   0.998  51.210  1.00  0.00     0.056 A 
ATOM     22  N   UNL     1      34.444   1.719  52.340  1.00  0.00    -0.242 NA
ATOM     23  C   UNL     1      35.318   0.855  50.130  1.00  0.00     0.068 C 
ENDBRANCH  15  18
BRANCH  16  24
ATOM     24  C   UNL     1      29.592  -2.196  55.018  1.00  0.00     0.416 C 
ATOM     25  F   UNL     1      29.035  -3.244  54.379  1.00  0.00    -0.166 F 
ATOM     26  F   UNL     1      30.772  -2.688  55.376  1.00  0.00    -0.166 F 
ATOM     27  F   UNL     1      28.773  -2.001  56.073  1.00  0.00    -0.166 F 
ENDBRANCH  16  24
ENDBRANCH  10  12
ENDBRANCH   1   8
BRANCH   6  28
ATOM     28  N   UNL     1      23.867   4.741  54.222  1.00  0.00    -0.324 N 
ATOM     29  H   UNL     1      23.187   4.179  54.753  1.00  0.00     0.170 HD
BRANCH  28  30
ATOM     30  C   UNL     1      24.310   5.967  54.721  1.00  0.00     0.227 A 
ATOM     31  N   UNL     1      25.247   6.207  55.630  1.00  0.00    -0.221 NA
ATOM     32  N   UNL     1      23.542   6.940  54.165  1.00  0.00    -0.213 NA
ATOM     33  C   UNL     1      25.449   7.495  55.967  1.00  0.00     0.117 A 
ATOM     34  C   UNL     1      23.758   8.201  54.555  1.00  0.00     0.077 A 
ATOM     35  C   UNL     1      24.712   8.498  55.463  1.00  0.00     0.049 A 
BRANCH  34  36
ATOM     36  C   UNL     1      22.916   9.231  53.892  1.00  0.00     0.019 A 
ATOM     37  C   UNL     1      22.394   9.036  52.604  1.00  0.00     0.013 A 
ATOM     38  C   UNL     1      22.632  10.449  54.541  1.00  0.00     0.121 A 
ATOM     39  C   UNL     1      21.634  10.044  52.023  1.00  0.00     0.021 A 
ATOM     40  N   UNL     1      21.907  11.427  53.983  1.00  0.00    -0.264 NA
ATOM     41  C   UNL     1      21.398  11.204  52.761  1.00  0.00     0.111 A 
ENDBRANCH  34  36
ENDBRANCH  28  30
ENDBRANCH   6  28
TORSDOF 7
ENDMDL
MODEL 9
REMARK VINA RESULT:   -10.960      2.719      5.018
REMARK INTER + INTRA:         -14.664
REMARK INTER:                 -13.048
REMARK INTRA:                  -1.616
REMARK CONF_INDEPENDENT:        2.088
REMARK UNBOUND:                -1.616
REMARK SMILES Cc1cn(-c2cc(NC(=O)c3ccc(C)c(Nc4nccc(-c5cccnc5)n4)c3)cc(C(F)(F)F)c2)cn1
REMARK SMILES IDX 11 1 12 2 13 3 14 4 15 5 16 6 30 7 9 8 10 9 8 10 7 12 6 13
REMARK SMILES IDX 31 14 5 15 32 16 37 17 4 18 3 19 38 20 2 21 39 22 1 23 33 24
REMARK SMILES IDX 34 25 35 26 36 27 17 28 18 30 19 31 29 32 20 33 22 34 21 35
REMARK SMILES IDX 23 36 24 37 28 38 25 39 27 40 26 41
REMARK H PARENT 8 11 17 29
ROOT
ATOM      1  C   UNL     1      28.068   1.407  53.495  1.00  0.00     0.042 A 
ATOM      2  C   UNL     1      27.664   0.644  54.601  1.00  0.00     0.014 A 
ATOM      3  C   UNL     1      28.282  -0.568  54.913  1.00  0.00     0.006 A 
ATOM      4  C   UNL     1      29.262  -1.106  54.096  1.00  0.00    -0.027 A 
ATOM      5  C   UNL     1      29.922  -2.433  54.444  1.00  0.00     0.046 C 
ATOM      6  C   UNL     1      29.596  -0.403  52.939  1.00  0.00     0.045 A 
ATOM      7  C   UNL     1      28.982   0.824  52.657  1.00  0.00     0.040 A 
ENDROOT
BRANCH   1   8
ATOM      8  C   UNL     1      27.391   2.629  53.021  1.00  0.00     0.255 C 
ATOM      9  O   UNL     1      27.922   3.190  52.094  1.00  0.00    -0.269 OA
ATOM     10  N   UNL     1      26.152   2.839  53.491  1.00  0.00    -0.322 N 
ATOM     11  H   UNL     1      25.799   2.173  54.192  1.00  0.00     0.170 HD
BRANCH  10  12
ATOM     12  C   UNL     1      25.303   3.874  53.119  1.00  0.00     0.044 A 
ATOM     13  C   UNL     1      24.977   4.093  51.757  1.00  0.00     0.052 A 
ATOM     14  C   UNL     1      24.842   4.804  54.076  1.00  0.00     0.039 A 
ATOM     15  C   UNL     1      24.115   5.125  51.374  1.00  0.00     0.049 A 
ATOM     16  C   UNL     1      23.946   5.841  53.686  1.00  0.00     0.060 A 
ATOM     17  C   UNL     1      23.627   6.002  52.336  1.00  0.00     0.039 A 
BRANCH  15  18
ATOM     18  N   UNL     1      23.753   5.324  50.033  1.00  0.00    -0.306 N 
ATOM     19  C   UNL     1      22.489   5.552  49.492  1.00  0.00     0.116 A 
ATOM     20  C   UNL     1      24.556   5.242  48.966  1.00  0.00     0.204 A 
ATOM     21  C   UNL     1      22.607   5.598  48.147  1.00  0.00     0.056 A 
ATOM     22  N   UNL     1      23.913   5.435  47.840  1.00  0.00    -0.242 NA
ATOM     23  C   UNL     1      21.522   5.841  47.127  1.00  0.00     0.068 C 
ENDBRANCH  15  18
BRANCH  16  24
ATOM     24  C   UNL     1      23.426   6.774  54.730  1.00  0.00     0.416 C 
ATOM     25  F   UNL     1      24.112   6.771  55.891  1.00  0.00    -0.166 F 
ATOM     26  F   UNL     1      23.548   8.039  54.343  1.00  0.00    -0.166 F 
ATOM     27  F   UNL     1      22.168   6.470  55.110  1.00  0.00    -0.166 F 
ENDBRANCH  16  24
ENDBRANCH  10  12
ENDBRANCH   1   8
BRANCH   6  28
ATOM     28  N   UNL     1      30.693  -0.842  52.186  1.00  0.00    -0.324 N 
ATOM     29  H   UNL     1      30.607  -1.665  51.573  1.00  0.00     0.170 HD
BRANCH  28  30
ATOM     30  C   UNL     1      31.905  -0.153  52.273  1.00  0.00     0.227 A 
ATOM     31  N   UNL     1      33.032  -0.364  51.604  1.00  0.00    -0.221 NA
ATOM     32  N   UNL     1      31.782   0.774  53.257  1.00  0.00    -0.213 NA
ATOM     33  C   UNL     1      34.077   0.426  51.915  1.00  0.00     0.117 A 
ATOM     34  C   UNL     1      32.858   1.513  53.553  1.00  0.00     0.077 A 
ATOM     35  C   UNL     1      34.022   1.349  52.888  1.00  0.00     0.049 A 
BRANCH  34  36
ATOM     36  C   UNL     1      32.662   2.537  54.612  1.00  0.00     0.019 A 
ATOM     37  C   UNL     1      33.521   3.641  54.736  1.00  0.00     0.013 A 
ATOM     38  C   UNL     1      31.608   2.415  55.538  1.00  0.00     0.121 A 
ATOM     39  C   UNL     1      33.305   4.552  55.761  1.00  0.00     0.021 A 
ATOM     40  N   UNL     1      31.399   3.287  56.533  1.00  0.00    -0.264 NA
ATOM     41  C   UNL     1      32.220   4.347  56.613  1.00  0.00     0.111 A 
ENDBRANCH  34  36
ENDBRANCH  28  30
ENDBRANCH   6  28
TORSDOF 7
ENDMDL
MODEL 10
REMARK VINA RESULT:   -10.882      8.345     15.256
REMARK INTER + INTRA:         -14.285
REMARK INTER:                 -12.970
REMARK INTRA:                  -1.314
REMARK CONF_INDEPENDENT:        2.088
REMARK UNBOUND:                -1.314
REMARK SMILES Cc1cn(-c2cc(NC(=O)c3ccc(C)c(Nc4nccc(-c5cccnc5)n4)c3)cc(C(F)(F)F)c2)cn1
REMARK SMILES IDX 11 1 12 2 13 3 14 4 15 5 16 6 30 7 9 8 10 9 8 10 7 12 6 13
REMARK SMILES IDX 31 14 5 15 32 16 37 17 4 18 3 19 38 20 2 21 39 22 1 23 33 24
REMARK SMILES IDX 34 25 35 26 36 27 17 28 18 30 19 31 29 32 20 33 22 34 21 35
REMARK SMILES IDX 23 36 24 37 28 38 25 39 27 40 26 41
REMARK H PARENT 8 11 17 29
ROOT
ATOM      1  C   UNL     1      35.979  -1.655  49.257  1.00  0.00     0.042 A 
ATOM      2  C   UNL     1      35.200  -2.816  49.140  1.00  0.00     0.014 A 
ATOM      3  C   UNL     1      33.827  -2.799  49.386  1.00  0.00     0.006 A 
ATOM      4  C   UNL     1      33.192  -1.652  49.836  1.00  0.00    -0.027 A 
ATOM      5  C   UNL     1      31.694  -1.650  50.108  1.00  0.00     0.046 C 
ATOM      6  C   UNL     1      33.978  -0.522  50.054  1.00  0.00     0.045 A 
ATOM      7  C   UNL     1      35.351  -0.553  49.778  1.00  0.00     0.040 A 
ENDROOT
BRANCH   1   8
ATOM      8  C   UNL     1      37.449  -1.610  49.141  1.00  0.00     0.255 C 
ATOM      9  O   UNL     1      38.032  -1.163  50.099  1.00  0.00    -0.269 OA
ATOM     10  N   UNL     1      37.983  -2.289  48.114  1.00  0.00    -0.322 N 
ATOM     11  H   UNL     1      37.327  -2.729  47.454  1.00  0.00     0.170 HD
BRANCH  10  12
ATOM     12  C   UNL     1      39.339  -2.452  47.860  1.00  0.00     0.044 A 
ATOM     13  C   UNL     1      39.904  -2.028  46.631  1.00  0.00     0.052 A 
ATOM     14  C   UNL     1      40.161  -3.152  48.770  1.00  0.00     0.039 A 
ATOM     15  C   UNL     1      41.269  -2.179  46.370  1.00  0.00     0.049 A 
ATOM     16  C   UNL     1      41.555  -3.284  48.512  1.00  0.00     0.060 A 
ATOM     17  C   UNL     1      42.077  -2.825  47.300  1.00  0.00     0.039 A 
BRANCH  15  18
ATOM     18  N   UNL     1      41.846  -1.725  45.175  1.00  0.00    -0.306 N 
ATOM     19  C   UNL     1      42.151  -0.421  44.790  1.00  0.00     0.116 A 
ATOM     20  C   UNL     1      42.144  -2.463  44.099  1.00  0.00     0.204 A 
ATOM     21  C   UNL     1      42.614  -0.453  43.521  1.00  0.00     0.056 A 
ATOM     22  N   UNL     1      42.633  -1.743  43.118  1.00  0.00    -0.242 NA
ATOM     23  C   UNL     1      43.090   0.704  42.676  1.00  0.00     0.068 C 
ENDBRANCH  15  18
BRANCH  16  24
ATOM     24  C   UNL     1      42.413  -3.977  49.521  1.00  0.00     0.416 C 
ATOM     25  F   UNL     1      42.384  -5.323  49.464  1.00  0.00    -0.166 F 
ATOM     26  F   UNL     1      43.698  -3.720  49.310  1.00  0.00    -0.166 F 
ATOM     27  F   UNL     1      42.034  -3.708  50.787  1.00  0.00    -0.166 F 
ENDBRANCH  16  24
ENDBRANCH  10  12
ENDBRANCH   1   8
BRANCH   6  28
ATOM     28  N   UNL     1      33.338   0.688  50.351  1.00  0.00    -0.324 N 
ATOM     29  H   UNL     1      32.995   1.294  49.593  1.00  0.00     0.170 HD
BRANCH  28  30
ATOM     30  C   UNL     1      33.168   1.066  51.685  1.00  0.00     0.227 A 
ATOM     31  N   UNL     1      33.880   1.924  52.404  1.00  0.00    -0.221 NA
ATOM     32  N   UNL     1      32.151   0.326  52.196  1.00  0.00    -0.213 NA
ATOM     33  C   UNL     1      33.526   2.073  53.694  1.00  0.00     0.117 A 
ATOM     34  C   UNL     1      31.856   0.485  53.492  1.00  0.00     0.077 A 
ATOM     35  C   UNL     1      32.540   1.359  54.261  1.00  0.00     0.049 A 
BRANCH  34  36
ATOM     36  C   UNL     1      30.713  -0.321  53.994  1.00  0.00     0.019 A 
ATOM     37  C   UNL     1      29.602   0.280  54.607  1.00  0.00     0.013 A 
ATOM     38  C   UNL     1      30.724  -1.725  53.881  1.00  0.00     0.121 A 
ATOM     39  C   UNL     1      28.574  -0.526  55.080  1.00  0.00     0.021 A 
ATOM     40  N   UNL     1      29.740  -2.508  54.343  1.00  0.00    -0.264 NA
ATOM     41  C   UNL     1      28.678  -1.905  54.901  1.00  0.00     0.111 A 
ENDBRANCH  34  36
ENDBRANCH  28  30
ENDBRANCH   6  28
TORSDOF 7
ENDMDL
MODEL 11
REMARK VINA RESULT:   -10.852      4.489      7.942
REMARK INTER + INTRA:         -14.014
REMARK INTER:                 -12.941
REMARK INTRA:                  -1.074
REMARK CONF_INDEPENDENT:        2.088
REMARK UNBOUND:                -1.074
REMARK SMILES Cc1cn(-c2cc(NC(=O)c3ccc(C)c(Nc4nccc(-c5cccnc5)n4)c3)cc(C(F)(F)F)c2)cn1
REMARK SMILES IDX 11 1 12 2 13 3 14 4 15 5 16 6 30 7 9 8 10 9 8 10 7 12 6 13
REMARK SMILES IDX 31 14 5 15 32 16 37 17 4 18 3 19 38 20 2 21 39 22 1 23 33 24
REMARK SMILES IDX 34 25 35 26 36 27 17 28 18 30 19 31 29 32 20 33 22 34 21 35
REMARK SMILES IDX 23 36 24 37 28 38 25 39 27 40 26 41
REMARK H PARENT 8 11 17 29
ROOT
ATOM      1  C   UNL     1      33.912  -0.705  50.829  1.00  0.00     0.042 A 
ATOM      2  C   UNL     1      33.899  -1.913  50.115  1.00  0.00     0.014 A 
ATOM      3  C   UNL     1      34.892  -2.216  49.182  1.00  0.00     0.006 A 
ATOM      4  C   UNL     1      35.882  -1.301  48.863  1.00  0.00    -0.027 A 
ATOM      5  C   UNL     1      36.954  -1.643  47.838  1.00  0.00     0.046 C 
ATOM      6  C   UNL     1      35.841  -0.059  49.494  1.00  0.00     0.045 A 
ATOM      7  C   UNL     1      34.851   0.217  50.446  1.00  0.00     0.040 A 
ENDROOT
BRANCH   1   8
ATOM      8  C   UNL     1      32.840  -0.250  51.736  1.00  0.00     0.255 C 
ATOM      9  O   UNL     1      33.084   0.751  52.365  1.00  0.00    -0.269 OA
ATOM     10  N   UNL     1      31.643  -0.835  51.578  1.00  0.00    -0.322 N 
ATOM     11  H   UNL     1      31.583  -1.597  50.888  1.00  0.00     0.170 HD
BRANCH  10  12
ATOM     12  C   UNL     1      30.478  -0.508  52.260  1.00  0.00     0.044 A 
ATOM     13  C   UNL     1      29.704   0.616  51.878  1.00  0.00     0.052 A 
ATOM     14  C   UNL     1      30.105  -1.215  53.424  1.00  0.00     0.039 A 
ATOM     15  C   UNL     1      28.525   0.947  52.552  1.00  0.00     0.049 A 
ATOM     16  C   UNL     1      28.892  -0.889  54.096  1.00  0.00     0.060 A 
ATOM     17  C   UNL     1      28.142   0.208  53.667  1.00  0.00     0.039 A 
BRANCH  15  18
ATOM     18  N   UNL     1      27.729   2.032  52.156  1.00  0.00    -0.306 N 
ATOM     19  C   UNL     1      26.789   2.746  52.898  1.00  0.00     0.116 A 
ATOM     20  C   UNL     1      27.643   2.556  50.928  1.00  0.00     0.204 A 
ATOM     21  C   UNL     1      26.204   3.649  52.081  1.00  0.00     0.056 A 
ATOM     22  N   UNL     1      26.775   3.537  50.861  1.00  0.00    -0.242 NA
ATOM     23  C   UNL     1      25.141   4.663  52.427  1.00  0.00     0.068 C 
ENDBRANCH  15  18
BRANCH  16  24
ATOM     24  C   UNL     1      28.490  -1.693  55.289  1.00  0.00     0.416 C 
ATOM     25  F   UNL     1      27.583  -2.659  55.046  1.00  0.00    -0.166 F 
ATOM     26  F   UNL     1      29.516  -2.392  55.761  1.00  0.00    -0.166 F 
ATOM     27  F   UNL     1      27.899  -0.940  56.240  1.00  0.00    -0.166 F 
ENDBRANCH  16  24
ENDBRANCH  10  12
ENDBRANCH   1   8
BRANCH   6  28
ATOM     28  N   UNL     1      36.919   0.817  49.312  1.00  0.00    -0.324 N 
ATOM     29  H   UNL     1      36.753   1.789  49.015  1.00  0.00     0.170 HD
BRANCH  28  30
ATOM     30  C   UNL     1      38.219   0.362  49.537  1.00  0.00     0.227 A 
ATOM     31  N   UNL     1      38.668  -0.435  50.499  1.00  0.00    -0.221 NA
ATOM     32  N   UNL     1      39.027   0.951  48.617  1.00  0.00    -0.213 NA
ATOM     33  C   UNL     1      39.991  -0.683  50.511  1.00  0.00     0.117 A 
ATOM     34  C   UNL     1      40.339   0.699  48.689  1.00  0.00     0.077 A 
ATOM     35  C   UNL     1      40.841  -0.120  49.638  1.00  0.00     0.049 A 
BRANCH  34  36
ATOM     36  C   UNL     1      41.174   1.338  47.639  1.00  0.00     0.019 A 
ATOM     37  C   UNL     1      42.545   1.057  47.518  1.00  0.00     0.013 A 
ATOM     38  C   UNL     1      40.609   2.263  46.740  1.00  0.00     0.121 A 
ATOM     39  C   UNL     1      43.281   1.704  46.533  1.00  0.00     0.021 A 
ATOM     40  N   UNL     1      41.315   2.895  45.794  1.00  0.00    -0.264 NA
ATOM     41  C   UNL     1      42.618   2.588  45.684  1.00  0.00     0.111 A 
ENDBRANCH  34  36
ENDBRANCH  28  30
ENDBRANCH   6  28
TORSDOF 7
ENDMDL
MODEL 12
REMARK VINA RESULT:   -10.828      3.530     12.051
REMARK INTER + INTRA:         -14.254
REMARK INTER:                 -12.916
REMARK INTRA:                  -1.338
REMARK CONF_INDEPENDENT:        2.088
REMARK UNBOUND:                -1.338
REMARK SMILES Cc1cn(-c2cc(NC(=O)c3ccc(C)c(Nc4nccc(-c5cccnc5)n4)c3)cc(C(F)(F)F)c2)cn1
REMARK SMILES IDX 11 1 12 2 13 3 14 4 15 5 16 6 30 7 9 8 10 9 8 10 7 12 6 13
REMARK SMILES IDX 31 14 5 15 32 16 37 17 4 18 3 19 38 20 2 21 39 22 1 23 33 24
REMARK SMILES IDX 34 25 35 26 36 27 17 28 18 30 19 31 29 32 20 33 22 34 21 35
REMARK SMILES IDX 23 36 24 37 28 38 25 39 27 40 26 41
REMARK H PARENT 8 11 17 29
ROOT
ATOM      1  C   UNL     1      25.550   3.683  51.822  1.00  0.00     0.042 A 
ATOM      2  C   UNL     1      24.775   3.848  50.664  1.00  0.00     0.014 A 
ATOM      3  C   UNL     1      23.438   4.244  50.734  1.00  0.00     0.006 A 
ATOM      4  C   UNL     1      22.801   4.409  51.954  1.00  0.00    -0.027 A 
ATOM      5  C   UNL     1      21.341   4.834  52.015  1.00  0.00     0.046 C 
ATOM      6  C   UNL     1      23.537   4.146  53.108  1.00  0.00     0.045 A 
ATOM      7  C   UNL     1      24.884   3.773  53.017  1.00  0.00     0.040 A 
ENDROOT
BRANCH   1   8
ATOM      8  C   UNL     1      26.925   3.147  51.847  1.00  0.00     0.255 C 
ATOM      9  O   UNL     1      27.483   3.100  50.778  1.00  0.00    -0.269 OA
ATOM     10  N   UNL     1      27.485   3.011  53.058  1.00  0.00    -0.322 N 
ATOM     11  H   UNL     1      26.894   3.227  53.873  1.00  0.00     0.170 HD
BRANCH  10  12
ATOM     12  C   UNL     1      28.790   2.607  53.313  1.00  0.00     0.044 A 
ATOM     13  C   UNL     1      29.408   1.605  52.525  1.00  0.00     0.052 A 
ATOM     14  C   UNL     1      29.487   3.099  54.438  1.00  0.00     0.039 A 
ATOM     15  C   UNL     1      30.723   1.199  52.768  1.00  0.00     0.049 A 
ATOM     16  C   UNL     1      30.834   2.701  54.671  1.00  0.00     0.060 A 
ATOM     17  C   UNL     1      31.416   1.732  53.850  1.00  0.00     0.039 A 
BRANCH  15  18
ATOM     18  N   UNL     1      31.358   0.238  51.967  1.00  0.00    -0.306 N 
ATOM     19  C   UNL     1      32.718  -0.047  51.853  1.00  0.00     0.116 A 
ATOM     20  C   UNL     1      30.780  -0.558  51.060  1.00  0.00     0.204 A 
ATOM     21  C   UNL     1      32.873  -0.991  50.899  1.00  0.00     0.056 A 
ATOM     22  N   UNL     1      31.646  -1.321  50.438  1.00  0.00    -0.242 NA
ATOM     23  C   UNL     1      34.154  -1.636  50.430  1.00  0.00     0.068 C 
ENDBRANCH  15  18
BRANCH  16  24
ATOM     24  C   UNL     1      31.568   3.283  55.834  1.00  0.00     0.416 C 
ATOM     25  F   UNL     1      30.974   4.349  56.407  1.00  0.00    -0.166 F 
ATOM     26  F   UNL     1      31.622   2.423  56.844  1.00  0.00    -0.166 F 
ATOM     27  F   UNL     1      32.786   3.751  55.491  1.00  0.00    -0.166 F 
ENDBRANCH  16  24
ENDBRANCH  10  12
ENDBRANCH   1   8
BRANCH   6  28
ATOM     28  N   UNL     1      22.967   4.461  54.348  1.00  0.00    -0.324 N 
ATOM     29  H   UNL     1      22.400   3.765  54.851  1.00  0.00     0.170 HD
BRANCH  28  30
ATOM     30  C   UNL     1      23.175   5.728  54.897  1.00  0.00     0.227 A 
ATOM     31  N   UNL     1      24.076   6.109  55.793  1.00  0.00    -0.221 NA
ATOM     32  N   UNL     1      22.212   6.552  54.409  1.00  0.00    -0.213 NA
ATOM     33  C   UNL     1      24.030   7.396  56.189  1.00  0.00     0.117 A 
ATOM     34  C   UNL     1      22.187   7.813  54.856  1.00  0.00     0.077 A 
ATOM     35  C   UNL     1      23.094   8.253  55.754  1.00  0.00     0.049 A 
BRANCH  34  36
ATOM     36  C   UNL     1      21.136   8.682  54.265  1.00  0.00     0.019 A 
ATOM     37  C   UNL     1      19.779   8.323  54.298  1.00  0.00     0.013 A 
ATOM     38  C   UNL     1      21.481   9.896  53.638  1.00  0.00     0.121 A 
ATOM     39  C   UNL     1      18.844   9.163  53.708  1.00  0.00     0.021 A 
ATOM     40  N   UNL     1      20.585  10.706  53.060  1.00  0.00    -0.264 NA
ATOM     41  C   UNL     1      19.292  10.350  53.128  1.00  0.00     0.111 A 
ENDBRANCH  34  36
ENDBRANCH  28  30
ENDBRANCH   6  28
TORSDOF 7
ENDMDL
MODEL 13
REMARK VINA RESULT:   -10.808      4.696     13.502
REMARK INTER + INTRA:         -14.224
REMARK INTER:                 -12.896
REMARK INTRA:                  -1.328
REMARK CONF_INDEPENDENT:        2.088
REMARK UNBOUND:                -1.328
REMARK SMILES Cc1cn(-c2cc(NC(=O)c3ccc(C)c(Nc4nccc(-c5cccnc5)n4)c3)cc(C(F)(F)F)c2)cn1
REMARK SMILES IDX 11 1 12 2 13 3 14 4 15 5 16 6 30 7 9 8 10 9 8 10 7 12 6 13
REMARK SMILES IDX 31 14 5 15 32 16 37 17 4 18 3 19 38 20 2 21 39 22 1 23 33 24
REMARK SMILES IDX 34 25 35 26 36 27 17 28 18 30 19 31 29 32 20 33 22 34 21 35
REMARK SMILES IDX 23 36 24 37 28 38 25 39 27 40 26 41
REMARK H PARENT 8 11 17 29
ROOT
ATOM      1  C   UNL     1      21.055   7.305  54.285  1.00  0.00     0.042 A 
ATOM      2  C   UNL     1      20.873   7.437  55.670  1.00  0.00     0.014 A 
ATOM      3  C   UNL     1      20.121   8.483  56.208  1.00  0.00     0.006 A 
ATOM      4  C   UNL     1      19.594   9.478  55.401  1.00  0.00    -0.027 A 
ATOM      5  C   UNL     1      18.782  10.616  56.002  1.00  0.00     0.046 C 
ATOM      6  C   UNL     1      19.859   9.409  54.034  1.00  0.00     0.045 A 
ATOM      7  C   UNL     1      20.595   8.338  53.511  1.00  0.00     0.040 A 
ENDROOT
BRANCH   1   8
ATOM      8  C   UNL     1      21.935   6.310  53.642  1.00  0.00     0.255 C 
ATOM      9  O   UNL     1      21.957   5.222  54.164  1.00  0.00    -0.269 OA
ATOM     10  N   UNL     1      22.406   6.634  52.428  1.00  0.00    -0.322 N 
ATOM     11  H   UNL     1      22.174   7.572  52.072  1.00  0.00     0.170 HD
BRANCH  10  12
ATOM     12  C   UNL     1      23.178   5.820  51.609  1.00  0.00     0.044 A 
ATOM     13  C   UNL     1      24.262   5.075  52.137  1.00  0.00     0.052 A 
ATOM     14  C   UNL     1      22.977   5.811  50.211  1.00  0.00     0.039 A 
ATOM     15  C   UNL     1      25.038   4.246  51.322  1.00  0.00     0.049 A 
ATOM     16  C   UNL     1      23.755   4.949  49.386  1.00  0.00     0.060 A 
ATOM     17  C   UNL     1      24.794   4.208  49.953  1.00  0.00     0.039 A 
BRANCH  15  18
ATOM     18  N   UNL     1      26.087   3.473  51.843  1.00  0.00    -0.306 N 
ATOM     19  C   UNL     1      26.435   3.252  53.174  1.00  0.00     0.116 A 
ATOM     20  C   UNL     1      27.043   2.847  51.146  1.00  0.00     0.204 A 
ATOM     21  C   UNL     1      27.565   2.512  53.198  1.00  0.00     0.056 A 
ATOM     22  N   UNL     1      27.911   2.241  51.920  1.00  0.00    -0.242 NA
ATOM     23  C   UNL     1      28.317   2.003  54.404  1.00  0.00     0.068 C 
ENDBRANCH  15  18
BRANCH  16  24
ATOM     24  C   UNL     1      23.480   4.914  47.918  1.00  0.00     0.416 C 
ATOM     25  F   UNL     1      24.525   5.248  47.135  1.00  0.00    -0.166 F 
ATOM     26  F   UNL     1      23.216   3.678  47.511  1.00  0.00    -0.166 F 
ATOM     27  F   UNL     1      22.523   5.792  47.554  1.00  0.00    -0.166 F 
ENDBRANCH  16  24
ENDBRANCH  10  12
ENDBRANCH   1   8
BRANCH   6  28
ATOM     28  N   UNL     1      19.205  10.308  53.182  1.00  0.00    -0.324 N 
ATOM     29  H   UNL     1      19.747  10.904  52.541  1.00  0.00     0.170 HD
BRANCH  28  30
ATOM     30  C   UNL     1      17.811  10.388  53.208  1.00  0.00     0.227 A 
ATOM     31  N   UNL     1      17.038  11.465  53.145  1.00  0.00    -0.221 NA
ATOM     32  N   UNL     1      17.329   9.133  53.395  1.00  0.00    -0.213 NA
ATOM     33  C   UNL     1      15.710  11.263  53.237  1.00  0.00     0.117 A 
ATOM     34  C   UNL     1      16.005   8.986  53.513  1.00  0.00     0.077 A 
ATOM     35  C   UNL     1      15.175  10.049  53.438  1.00  0.00     0.049 A 
BRANCH  34  36
ATOM     36  C   UNL     1      15.525   7.589  53.681  1.00  0.00     0.019 A 
ATOM     37  C   UNL     1      14.706   7.217  54.759  1.00  0.00     0.013 A 
ATOM     38  C   UNL     1      15.898   6.589  52.761  1.00  0.00     0.121 A 
ATOM     39  C   UNL     1      14.309   5.892  54.879  1.00  0.00     0.021 A 
ATOM     40  N   UNL     1      15.525   5.308  52.876  1.00  0.00    -0.264 NA
ATOM     41  C   UNL     1      14.721   4.986  53.902  1.00  0.00     0.111 A 
ENDBRANCH  34  36
ENDBRANCH  28  30
ENDBRANCH   6  28
TORSDOF 7
ENDMDL
MODEL 14
REMARK VINA RESULT:   -10.802      4.100     11.219
REMARK INTER + INTRA:         -14.132
REMARK INTER:                 -12.890
REMARK INTRA:                  -1.242
REMARK CONF_INDEPENDENT:        2.088
REMARK UNBOUND:                -1.242
REMARK SMILES Cc1cn(-c2cc(NC(=O)c3ccc(C)c(Nc4nccc(-c5cccnc5)n4)c3)cc(C(F)(F)F)c2)cn1
REMARK SMILES IDX 11 1 12 2 13 3 14 4 15 5 16 6 30 7 9 8 10 9 8 10 7 12 6 13
REMARK SMILES IDX 31 14 5 15 32 16 37 17 4 18 3 19 38 20 2 21 39 22 1 23 33 24
REMARK SMILES IDX 34 25 35 26 36 27 17 28 18 30 19 31 29 32 20 33 22 34 21 35
REMARK SMILES IDX 23 36 24 37 28 38 25 39 27 40 26 41
REMARK H PARENT 8 11 17 29
ROOT
ATOM      1  C   UNL     1      25.686   3.685  51.863  1.00  0.00     0.042 A 
ATOM      2  C   UNL     1      24.885   3.718  50.712  1.00  0.00     0.014 A 
ATOM      3  C   UNL     1      23.556   4.140  50.763  1.00  0.00     0.006 A 
ATOM      4  C   UNL     1      22.951   4.464  51.966  1.00  0.00    -0.027 A 
ATOM      5  C   UNL     1      21.498   4.915  52.008  1.00  0.00     0.046 C 
ATOM      6  C   UNL     1      23.711   4.333  53.128  1.00  0.00     0.045 A 
ATOM      7  C   UNL     1      25.051   3.932  53.052  1.00  0.00     0.040 A 
ENDROOT
BRANCH   1   8
ATOM      8  C   UNL     1      27.055   3.135  51.923  1.00  0.00     0.255 C 
ATOM      9  O   UNL     1      27.628   3.055  50.864  1.00  0.00    -0.269 OA
ATOM     10  N   UNL     1      27.595   3.025  53.146  1.00  0.00    -0.322 N 
ATOM     11  H   UNL     1      26.994   3.268  53.946  1.00  0.00     0.170 HD
BRANCH  10  12
ATOM     12  C   UNL     1      28.891   2.614  53.431  1.00  0.00     0.044 A 
ATOM     13  C   UNL     1      29.514   1.592  52.672  1.00  0.00     0.052 A 
ATOM     14  C   UNL     1      29.573   3.120  54.560  1.00  0.00     0.039 A 
ATOM     15  C   UNL     1      30.821   1.179  52.946  1.00  0.00     0.049 A 
ATOM     16  C   UNL     1      30.912   2.714  54.823  1.00  0.00     0.060 A 
ATOM     17  C   UNL     1      31.499   1.725  54.030  1.00  0.00     0.039 A 
BRANCH  15  18
ATOM     18  N   UNL     1      31.461   0.197  52.174  1.00  0.00    -0.306 N 
ATOM     19  C   UNL     1      32.773   0.170  51.705  1.00  0.00     0.116 A 
ATOM     20  C   UNL     1      30.900  -0.895  51.642  1.00  0.00     0.204 A 
ATOM     21  C   UNL     1      32.922  -0.927  50.931  1.00  0.00     0.056 A 
ATOM     22  N   UNL     1      31.749  -1.598  50.931  1.00  0.00    -0.242 NA
ATOM     23  C   UNL     1      34.166  -1.399  50.218  1.00  0.00     0.068 C 
ENDBRANCH  15  18
BRANCH  16  24
ATOM     24  C   UNL     1      31.631   3.311  55.989  1.00  0.00     0.416 C 
ATOM     25  F   UNL     1      31.043   4.398  56.525  1.00  0.00    -0.166 F 
ATOM     26  F   UNL     1      31.649   2.472  57.018  1.00  0.00    -0.166 F 
ATOM     27  F   UNL     1      32.864   3.751  55.661  1.00  0.00    -0.166 F 
ENDBRANCH  16  24
ENDBRANCH  10  12
ENDBRANCH   1   8
BRANCH   6  28
ATOM     28  N   UNL     1      23.175   4.807  54.332  1.00  0.00    -0.324 N 
ATOM     29  H   UNL     1      22.558   4.207  54.898  1.00  0.00     0.170 HD
BRANCH  28  30
ATOM     30  C   UNL     1      23.485   6.100  54.760  1.00  0.00     0.227 A 
ATOM     31  N   UNL     1      23.308   7.252  54.125  1.00  0.00    -0.221 NA
ATOM     32  N   UNL     1      24.103   5.998  55.964  1.00  0.00    -0.213 NA
ATOM     33  C   UNL     1      23.740   8.362  54.752  1.00  0.00     0.117 A 
ATOM     34  C   UNL     1      24.544   7.126  56.534  1.00  0.00     0.077 A 
ATOM     35  C   UNL     1      24.371   8.324  55.936  1.00  0.00     0.049 A 
BRANCH  34  36
ATOM     36  C   UNL     1      25.181   6.965  57.867  1.00  0.00     0.019 A 
ATOM     37  C   UNL     1      24.466   7.184  59.056  1.00  0.00     0.013 A 
ATOM     38  C   UNL     1      26.538   6.599  57.972  1.00  0.00     0.121 A 
ATOM     39  C   UNL     1      25.121   7.043  60.273  1.00  0.00     0.021 A 
ATOM     40  N   UNL     1      27.176   6.470  59.142  1.00  0.00    -0.264 NA
ATOM     41  C   UNL     1      26.462   6.660  60.263  1.00  0.00     0.111 A 
ENDBRANCH  34  36
ENDBRANCH  28  30
ENDBRANCH   6  28
TORSDOF 7
ENDMDL
MODEL 15
REMARK VINA RESULT:   -10.716      1.969      2.997
REMARK INTER + INTRA:         -13.986
REMARK INTER:                 -12.804
REMARK INTRA:                  -1.183
REMARK CONF_INDEPENDENT:        2.088
REMARK UNBOUND:                -1.183
REMARK SMILES Cc1cn(-c2cc(NC(=O)c3ccc(C)c(Nc4nccc(-c5cccnc5)n4)c3)cc(C(F)(F)F)c2)cn1
REMARK SMILES IDX 11 1 12 2 13 3 14 4 15 5 16 6 30 7 9 8 10 9 8 10 7 12 6 13
REMARK SMILES IDX 31 14 5 15 32 16 37 17 4 18 3 19 38 20 2 21 39 22 1 23 33 24
REMARK SMILES IDX 34 25 35 26 36 27 17 28 18 30 19 31 29 32 20 33 22 34 21 35
REMARK SMILES IDX 23 36 24 37 28 38 25 39 27 40 26 41
REMARK H PARENT 8 11 17 29
ROOT
ATOM      1  C   UNL     1      26.775   2.735  52.562  1.00  0.00     0.042 A 
ATOM      2  C   UNL     1      26.848   1.684  51.636  1.00  0.00     0.014 A 
ATOM      3  C   UNL     1      27.748   0.630  51.803  1.00  0.00     0.006 A 
ATOM      4  C   UNL     1      28.662   0.624  52.844  1.00  0.00    -0.027 A 
ATOM      5  C   UNL     1      29.643  -0.528  53.009  1.00  0.00     0.046 C 
ATOM      6  C   UNL     1      28.665   1.718  53.708  1.00  0.00     0.045 A 
ATOM      7  C   UNL     1      27.736   2.753  53.539  1.00  0.00     0.040 A 
ENDROOT
BRANCH   1   8
ATOM      8  C   UNL     1      25.947   3.947  52.399  1.00  0.00     0.255 C 
ATOM      9  O   UNL     1      25.699   4.255  51.258  1.00  0.00    -0.269 OA
ATOM     10  N   UNL     1      25.361   4.417  53.510  1.00  0.00    -0.322 N 
ATOM     11  H   UNL     1      25.586   3.941  54.394  1.00  0.00     0.170 HD
BRANCH  10  12
ATOM     12  C   UNL     1      24.479   5.488  53.576  1.00  0.00     0.044 A 
ATOM     13  C   UNL     1      23.812   5.807  54.785  1.00  0.00     0.052 A 
ATOM     14  C   UNL     1      24.136   6.209  52.411  1.00  0.00     0.039 A 
ATOM     15  C   UNL     1      22.930   6.889  54.864  1.00  0.00     0.049 A 
ATOM     16  C   UNL     1      23.255   7.324  52.499  1.00  0.00     0.060 A 
ATOM     17  C   UNL     1      22.641   7.622  53.718  1.00  0.00     0.039 A 
BRANCH  15  18
ATOM     18  N   UNL     1      22.297   7.238  56.066  1.00  0.00    -0.306 N 
ATOM     19  C   UNL     1      22.817   7.247  57.359  1.00  0.00     0.116 A 
ATOM     20  C   UNL     1      21.007   7.554  56.230  1.00  0.00     0.204 A 
ATOM     21  C   UNL     1      21.820   7.569  58.213  1.00  0.00     0.056 A 
ATOM     22  N   UNL     1      20.704   7.789  57.483  1.00  0.00    -0.242 NA
ATOM     23  C   UNL     1      21.895   7.725  59.712  1.00  0.00     0.068 C 
ENDBRANCH  15  18
BRANCH  16  24
ATOM     24  C   UNL     1      22.956   8.106  51.261  1.00  0.00     0.416 C 
ATOM     25  F   UNL     1      22.350   7.409  50.279  1.00  0.00    -0.166 F 
ATOM     26  F   UNL     1      22.069   9.065  51.505  1.00  0.00    -0.166 F 
ATOM     27  F   UNL     1      24.073   8.576  50.669  1.00  0.00    -0.166 F 
ENDBRANCH  16  24
ENDBRANCH  10  12
ENDBRANCH   1   8
BRANCH   6  28
ATOM     28  N   UNL     1      29.464   1.658  54.857  1.00  0.00    -0.324 N 
ATOM     29  H   UNL     1      29.089   1.264  55.731  1.00  0.00     0.170 HD
BRANCH  28  30
ATOM     30  C   UNL     1      30.774   2.138  54.807  1.00  0.00     0.227 A 
ATOM     31  N   UNL     1      31.322   3.136  55.489  1.00  0.00    -0.221 NA
ATOM     32  N   UNL     1      31.432   1.442  53.844  1.00  0.00    -0.213 NA
ATOM     33  C   UNL     1      32.609   3.423  55.214  1.00  0.00     0.117 A 
ATOM     34  C   UNL     1      32.699   1.784  53.585  1.00  0.00     0.077 A 
ATOM     35  C   UNL     1      33.306   2.781  54.264  1.00  0.00     0.049 A 
BRANCH  34  36
ATOM     36  C   UNL     1      33.385   0.969  52.548  1.00  0.00     0.019 A 
ATOM     37  C   UNL     1      32.664   0.262  51.572  1.00  0.00     0.013 A 
ATOM     38  C   UNL     1      34.790   0.873  52.528  1.00  0.00     0.121 A 
ATOM     39  C   UNL     1      33.357  -0.503  50.643  1.00  0.00     0.021 A 
ATOM     40  N   UNL     1      35.464   0.130  51.640  1.00  0.00    -0.264 NA
ATOM     41  C   UNL     1      34.750  -0.515  50.702  1.00  0.00     0.111 A 
ENDBRANCH  34  36
ENDBRANCH  28  30
ENDBRANCH   6  28
TORSDOF 7
ENDMDL
MODEL 16
REMARK VINA RESULT:   -10.632      6.766     14.748
REMARK INTER + INTRA:         -13.741
REMARK INTER:                 -12.720
REMARK INTRA:                  -1.022
REMARK CONF_INDEPENDENT:        2.088
REMARK UNBOUND:                -1.022
REMARK SMILES Cc1cn(-c2cc(NC(=O)c3ccc(C)c(Nc4nccc(-c5cccnc5)n4)c3)cc(C(F)(F)F)c2)cn1
REMARK SMILES IDX 11 1 12 2 13 3 14 4 15 5 16 6 30 7 9 8 10 9 8 10 7 12 6 13
REMARK SMILES IDX 31 14 5 15 32 16 37 17 4 18 3 19 38 20 2 21 39 22 1 23 33 24
REMARK SMILES IDX 34 25 35 26 36 27 17 28 18 30 19 31 29 32 20 33 22 34 21 35
REMARK SMILES IDX 23 36 24 37 28 38 25 39 27 40 26 41
REMARK H PARENT 8 11 17 29
ROOT
ATOM      1  C   UNL     1      35.600  -1.336  49.686  1.00  0.00     0.042 A 
ATOM      2  C   UNL     1      34.818  -2.288  49.015  1.00  0.00     0.014 A 
ATOM      3  C   UNL     1      33.425  -2.271  49.095  1.00  0.00     0.006 A 
ATOM      4  C   UNL     1      32.763  -1.364  49.907  1.00  0.00    -0.027 A 
ATOM      5  C   UNL     1      31.243  -1.362  49.991  1.00  0.00     0.046 C 
ATOM      6  C   UNL     1      33.539  -0.482  50.657  1.00  0.00     0.045 A 
ATOM      7  C   UNL     1      34.935  -0.499  50.544  1.00  0.00     0.040 A 
ENDROOT
BRANCH   1   8
ATOM      8  C   UNL     1      37.074  -1.356  49.760  1.00  0.00     0.255 C 
ATOM      9  O   UNL     1      37.550  -0.881  50.762  1.00  0.00    -0.269 OA
ATOM     10  N   UNL     1      37.702  -2.112  48.846  1.00  0.00    -0.322 N 
ATOM     11  H   UNL     1      37.116  -2.562  48.129  1.00  0.00     0.170 HD
BRANCH  10  12
ATOM     12  C   UNL     1      39.070  -2.342  48.778  1.00  0.00     0.044 A 
ATOM     13  C   UNL     1      39.846  -2.466  49.958  1.00  0.00     0.052 A 
ATOM     14  C   UNL     1      39.739  -2.338  47.535  1.00  0.00     0.039 A 
ATOM     15  C   UNL     1      41.221  -2.708  49.900  1.00  0.00     0.049 A 
ATOM     16  C   UNL     1      41.136  -2.607  47.477  1.00  0.00     0.060 A 
ATOM     17  C   UNL     1      41.858  -2.753  48.664  1.00  0.00     0.039 A 
BRANCH  15  18
ATOM     18  N   UNL     1      41.991  -2.874  51.061  1.00  0.00    -0.306 N 
ATOM     19  C   UNL     1      41.911  -3.874  52.029  1.00  0.00     0.116 A 
ATOM     20  C   UNL     1      42.920  -2.035  51.534  1.00  0.00     0.204 A 
ATOM     21  C   UNL     1      42.790  -3.581  53.012  1.00  0.00     0.056 A 
ATOM     22  N   UNL     1      43.435  -2.445  52.667  1.00  0.00    -0.242 NA
ATOM     23  C   UNL     1      43.082  -4.373  54.264  1.00  0.00     0.068 C 
ENDBRANCH  15  18
BRANCH  16  24
ATOM     24  C   UNL     1      41.807  -2.656  46.143  1.00  0.00     0.416 C 
ATOM     25  F   UNL     1      41.162  -2.001  45.157  1.00  0.00    -0.166 F 
ATOM     26  F   UNL     1      42.976  -2.026  46.173  1.00  0.00    -0.166 F 
ATOM     27  F   UNL     1      41.911  -3.914  45.667  1.00  0.00    -0.166 F 
ENDBRANCH  16  24
ENDBRANCH  10  12
ENDBRANCH   1   8
BRANCH   6  28
ATOM     28  N   UNL     1      32.893   0.546  51.357  1.00  0.00    -0.324 N 
ATOM     29  H   UNL     1      33.117   1.531  51.156  1.00  0.00     0.170 HD
BRANCH  28  30
ATOM     30  C   UNL     1      31.943   0.224  52.328  1.00  0.00     0.227 A 
ATOM     31  N   UNL     1      32.015  -0.683  53.294  1.00  0.00    -0.221 NA
ATOM     32  N   UNL     1      30.834   0.967  52.081  1.00  0.00    -0.213 NA
ATOM     33  C   UNL     1      30.927  -0.822  54.075  1.00  0.00     0.117 A 
ATOM     34  C   UNL     1      29.767   0.770  52.864  1.00  0.00     0.077 A 
ATOM     35  C   UNL     1      29.796  -0.128  53.872  1.00  0.00     0.049 A 
BRANCH  34  36
ATOM     36  C   UNL     1      28.591   1.632  52.575  1.00  0.00     0.019 A 
ATOM     37  C   UNL     1      27.514   1.731  53.471  1.00  0.00     0.013 A 
ATOM     38  C   UNL     1      28.520   2.367  51.376  1.00  0.00     0.121 A 
ATOM     39  C   UNL     1      26.430   2.532  53.137  1.00  0.00     0.021 A 
ATOM     40  N   UNL     1      27.474   3.135  51.045  1.00  0.00    -0.264 NA
ATOM     41  C   UNL     1      26.469   3.231  51.931  1.00  0.00     0.111 A 
ENDBRANCH  34  36
ENDBRANCH  28  30
ENDBRANCH   6  28
TORSDOF 7
ENDMDL
MODEL 17
REMARK VINA RESULT:   -10.564      8.319     15.012
REMARK INTER + INTRA:         -14.002
REMARK INTER:                 -12.652
REMARK INTRA:                  -1.351
REMARK CONF_INDEPENDENT:        2.088
REMARK UNBOUND:                -1.351
REMARK SMILES Cc1cn(-c2cc(NC(=O)c3ccc(C)c(Nc4nccc(-c5cccnc5)n4)c3)cc(C(F)(F)F)c2)cn1
REMARK SMILES IDX 11 1 12 2 13 3 14 4 15 5 16 6 30 7 9 8 10 9 8 10 7 12 6 13
REMARK SMILES IDX 31 14 5 15 32 16 37 17 4 18 3 19 38 20 2 21 39 22 1 23 33 24
REMARK SMILES IDX 34 25 35 26 36 27 17 28 18 30 19 31 29 32 20 33 22 34 21 35
REMARK SMILES IDX 23 36 24 37 28 38 25 39 27 40 26 41
REMARK H PARENT 8 11 17 29
ROOT
ATOM      1  C   UNL     1      36.216  -1.605  49.570  1.00  0.00     0.042 A 
ATOM      2  C   UNL     1      35.483  -2.774  49.317  1.00  0.00     0.014 A 
ATOM      3  C   UNL     1      34.089  -2.787  49.385  1.00  0.00     0.006 A 
ATOM      4  C   UNL     1      33.379  -1.667  49.787  1.00  0.00    -0.027 A 
ATOM      5  C   UNL     1      31.859  -1.699  49.864  1.00  0.00     0.046 C 
ATOM      6  C   UNL     1      34.107  -0.533  50.140  1.00  0.00     0.045 A 
ATOM      7  C   UNL     1      35.504  -0.532  50.041  1.00  0.00     0.040 A 
ENDROOT
BRANCH   1   8
ATOM      8  C   UNL     1      37.688  -1.532  49.645  1.00  0.00     0.255 C 
ATOM      9  O   UNL     1      38.128  -0.736  50.438  1.00  0.00    -0.269 OA
ATOM     10  N   UNL     1      38.361  -2.513  49.025  1.00  0.00    -0.322 N 
ATOM     11  H   UNL     1      37.806  -3.197  48.493  1.00  0.00     0.170 HD
BRANCH  10  12
ATOM     12  C   UNL     1      39.739  -2.689  49.034  1.00  0.00     0.044 A 
ATOM     13  C   UNL     1      40.472  -2.623  50.245  1.00  0.00     0.052 A 
ATOM     14  C   UNL     1      40.455  -2.818  47.824  1.00  0.00     0.039 A 
ATOM     15  C   UNL     1      41.857  -2.809  50.266  1.00  0.00     0.049 A 
ATOM     16  C   UNL     1      41.863  -3.029  47.850  1.00  0.00     0.060 A 
ATOM     17  C   UNL     1      42.543  -2.987  49.069  1.00  0.00     0.039 A 
BRANCH  15  18
ATOM     18  N   UNL     1      42.587  -2.787  51.465  1.00  0.00    -0.306 N 
ATOM     19  C   UNL     1      42.688  -3.772  52.446  1.00  0.00     0.116 A 
ATOM     20  C   UNL     1      43.278  -1.756  51.963  1.00  0.00     0.204 A 
ATOM     21  C   UNL     1      43.429  -3.280  53.463  1.00  0.00     0.056 A 
ATOM     22  N   UNL     1      43.816  -2.029  53.127  1.00  0.00    -0.242 NA
ATOM     23  C   UNL     1      43.831  -3.975  54.741  1.00  0.00     0.068 C 
ENDBRANCH  15  18
BRANCH  16  24
ATOM     24  C   UNL     1      42.587  -3.223  46.557  1.00  0.00     0.416 C 
ATOM     25  F   UNL     1      41.814  -3.611  45.523  1.00  0.00    -0.166 F 
ATOM     26  F   UNL     1      43.084  -2.075  46.112  1.00  0.00    -0.166 F 
ATOM     27  F   UNL     1      43.520  -4.194  46.632  1.00  0.00    -0.166 F 
ENDBRANCH  16  24
ENDBRANCH  10  12
ENDBRANCH   1   8
BRANCH   6  28
ATOM     28  N   UNL     1      33.409   0.656  50.391  1.00  0.00    -0.324 N 
ATOM     29  H   UNL     1      33.053   1.223  49.609  1.00  0.00     0.170 HD
BRANCH  28  30
ATOM     30  C   UNL     1      33.202   1.065  51.709  1.00  0.00     0.227 A 
ATOM     31  N   UNL     1      33.886   1.949  52.424  1.00  0.00    -0.221 NA
ATOM     32  N   UNL     1      32.180   0.326  52.214  1.00  0.00    -0.213 NA
ATOM     33  C   UNL     1      33.497   2.126  53.701  1.00  0.00     0.117 A 
ATOM     34  C   UNL     1      31.851   0.515  53.497  1.00  0.00     0.077 A 
ATOM     35  C   UNL     1      32.505   1.416  54.261  1.00  0.00     0.049 A 
BRANCH  34  36
ATOM     36  C   UNL     1      30.704  -0.292  53.991  1.00  0.00     0.019 A 
ATOM     37  C   UNL     1      29.595   0.308  54.609  1.00  0.00     0.013 A 
ATOM     38  C   UNL     1      30.709  -1.694  53.863  1.00  0.00     0.121 A 
ATOM     39  C   UNL     1      28.564  -0.498  55.074  1.00  0.00     0.021 A 
ATOM     40  N   UNL     1      29.721  -2.477  54.317  1.00  0.00    -0.264 NA
ATOM     41  C   UNL     1      28.661  -1.876  54.881  1.00  0.00     0.111 A 
ENDBRANCH  34  36
ENDBRANCH  28  30
ENDBRANCH   6  28
TORSDOF 7
ENDMDL
MODEL 18
REMARK VINA RESULT:   -10.535      5.733     10.811
REMARK INTER + INTRA:         -13.794
REMARK INTER:                 -12.623
REMARK INTRA:                  -1.170
REMARK CONF_INDEPENDENT:        2.088
REMARK UNBOUND:                -1.170
REMARK SMILES Cc1cn(-c2cc(NC(=O)c3ccc(C)c(Nc4nccc(-c5cccnc5)n4)c3)cc(C(F)(F)F)c2)cn1
REMARK SMILES IDX 11 1 12 2 13 3 14 4 15 5 16 6 30 7 9 8 10 9 8 10 7 12 6 13
REMARK SMILES IDX 31 14 5 15 32 16 37 17 4 18 3 19 38 20 2 21 39 22 1 23 33 24
REMARK SMILES IDX 34 25 35 26 36 27 17 28 18 30 19 31 29 32 20 33 22 34 21 35
REMARK SMILES IDX 23 36 24 37 28 38 25 39 27 40 26 41
REMARK H PARENT 8 11 17 29
ROOT
ATOM      1  C   UNL     1      22.313   6.453  55.236  1.00  0.00     0.042 A 
ATOM      2  C   UNL     1      21.557   7.575  54.863  1.00  0.00     0.014 A 
ATOM      3  C   UNL     1      21.096   8.489  55.812  1.00  0.00     0.006 A 
ATOM      4  C   UNL     1      21.296   8.280  57.167  1.00  0.00    -0.027 A 
ATOM      5  C   UNL     1      20.781   9.282  58.191  1.00  0.00     0.046 C 
ATOM      6  C   UNL     1      21.956   7.114  57.551  1.00  0.00     0.045 A 
ATOM      7  C   UNL     1      22.433   6.222  56.582  1.00  0.00     0.040 A 
ENDROOT
BRANCH   1   8
ATOM      8  C   UNL     1      22.729   5.374  54.319  1.00  0.00     0.255 C 
ATOM      9  O   UNL     1      21.843   4.653  53.930  1.00  0.00    -0.269 OA
ATOM     10  N   UNL     1      23.974   5.463  53.828  1.00  0.00    -0.322 N 
ATOM     11  H   UNL     1      24.561   6.234  54.177  1.00  0.00     0.170 HD
BRANCH  10  12
ATOM     12  C   UNL     1      24.545   4.611  52.891  1.00  0.00     0.044 A 
ATOM     13  C   UNL     1      23.804   4.164  51.769  1.00  0.00     0.052 A 
ATOM     14  C   UNL     1      25.834   4.075  53.099  1.00  0.00     0.039 A 
ATOM     15  C   UNL     1      24.372   3.314  50.815  1.00  0.00     0.049 A 
ATOM     16  C   UNL     1      26.420   3.227  52.116  1.00  0.00     0.060 A 
ATOM     17  C   UNL     1      25.664   2.835  51.008  1.00  0.00     0.039 A 
BRANCH  15  18
ATOM     18  N   UNL     1      23.662   2.899  49.679  1.00  0.00    -0.306 N 
ATOM     19  C   UNL     1      22.899   1.747  49.495  1.00  0.00     0.116 A 
ATOM     20  C   UNL     1      23.646   3.497  48.482  1.00  0.00     0.204 A 
ATOM     21  C   UNL     1      22.472   1.724  48.214  1.00  0.00     0.056 A 
ATOM     22  N   UNL     1      22.923   2.843  47.605  1.00  0.00    -0.242 NA
ATOM     23  C   UNL     1      21.601   0.689  47.544  1.00  0.00     0.068 C 
ENDBRANCH  15  18
BRANCH  16  24
ATOM     24  C   UNL     1      27.809   2.722  52.333  1.00  0.00     0.416 C 
ATOM     25  F   UNL     1      27.912   1.389  52.497  1.00  0.00    -0.166 F 
ATOM     26  F   UNL     1      28.564   2.926  51.260  1.00  0.00    -0.166 F 
ATOM     27  F   UNL     1      28.366   3.220  53.457  1.00  0.00    -0.166 F 
ENDBRANCH  16  24
ENDBRANCH  10  12
ENDBRANCH   1   8
BRANCH   6  28
ATOM     28  N   UNL     1      22.312   6.962  58.897  1.00  0.00    -0.324 N 
ATOM     29  H   UNL     1      21.776   6.328  59.507  1.00  0.00     0.170 HD
BRANCH  28  30
ATOM     30  C   UNL     1      23.398   7.676  59.405  1.00  0.00     0.227 A 
ATOM     31  N   UNL     1      23.697   8.960  59.251  1.00  0.00    -0.221 NA
ATOM     32  N   UNL     1      24.199   6.796  60.060  1.00  0.00    -0.213 NA
ATOM     33  C   UNL     1      24.841   9.388  59.817  1.00  0.00     0.117 A 
ATOM     34  C   UNL     1      25.341   7.262  60.579  1.00  0.00     0.077 A 
ATOM     35  C   UNL     1      25.680   8.564  60.464  1.00  0.00     0.049 A 
BRANCH  34  36
ATOM     36  C   UNL     1      26.165   6.268  61.315  1.00  0.00     0.019 A 
ATOM     37  C   UNL     1      26.402   6.386  62.694  1.00  0.00     0.013 A 
ATOM     38  C   UNL     1      26.748   5.179  60.637  1.00  0.00     0.121 A 
ATOM     39  C   UNL     1      27.201   5.440  63.325  1.00  0.00     0.021 A 
ATOM     40  N   UNL     1      27.525   4.269  61.238  1.00  0.00    -0.264 NA
ATOM     41  C   UNL     1      27.714   4.392  62.562  1.00  0.00     0.111 A 
ENDBRANCH  34  36
ENDBRANCH  28  30
ENDBRANCH   6  28
TORSDOF 7
ENDMDL
MODEL 19
REMARK VINA RESULT:   -10.443      5.241      8.083
REMARK INTER + INTRA:         -13.730
REMARK INTER:                 -12.531
REMARK INTRA:                  -1.200
REMARK CONF_INDEPENDENT:        2.088
REMARK UNBOUND:                -1.200
REMARK SMILES Cc1cn(-c2cc(NC(=O)c3ccc(C)c(Nc4nccc(-c5cccnc5)n4)c3)cc(C(F)(F)F)c2)cn1
REMARK SMILES IDX 11 1 12 2 13 3 14 4 15 5 16 6 30 7 9 8 10 9 8 10 7 12 6 13
REMARK SMILES IDX 31 14 5 15 32 16 37 17 4 18 3 19 38 20 2 21 39 22 1 23 33 24
REMARK SMILES IDX 34 25 35 26 36 27 17 28 18 30 19 31 29 32 20 33 22 34 21 35
REMARK SMILES IDX 23 36 24 37 28 38 25 39 27 40 26 41
REMARK H PARENT 8 11 17 29
ROOT
ATOM      1  C   UNL     1      24.516   5.895  54.245  1.00  0.00     0.042 A 
ATOM      2  C   UNL     1      23.906   6.625  53.214  1.00  0.00     0.014 A 
ATOM      3  C   UNL     1      23.774   6.096  51.929  1.00  0.00     0.006 A 
ATOM      4  C   UNL     1      24.313   4.863  51.600  1.00  0.00    -0.027 A 
ATOM      5  C   UNL     1      24.168   4.303  50.192  1.00  0.00     0.046 C 
ATOM      6  C   UNL     1      25.011   4.178  52.593  1.00  0.00     0.045 A 
ATOM      7  C   UNL     1      25.111   4.714  53.883  1.00  0.00     0.040 A 
ENDROOT
BRANCH   1   8
ATOM      8  C   UNL     1      24.810   6.422  55.592  1.00  0.00     0.255 C 
ATOM      9  O   UNL     1      25.891   6.944  55.719  1.00  0.00    -0.269 OA
ATOM     10  N   UNL     1      23.773   6.492  56.440  1.00  0.00    -0.322 N 
ATOM     11  H   UNL     1      22.874   6.113  56.110  1.00  0.00     0.170 HD
BRANCH  10  12
ATOM     12  C   UNL     1      23.801   7.028  57.721  1.00  0.00     0.044 A 
ATOM     13  C   UNL     1      24.746   6.578  58.677  1.00  0.00     0.052 A 
ATOM     14  C   UNL     1      22.812   7.945  58.137  1.00  0.00     0.039 A 
ATOM     15  C   UNL     1      24.788   7.118  59.965  1.00  0.00     0.049 A 
ATOM     16  C   UNL     1      22.871   8.511  59.443  1.00  0.00     0.060 A 
ATOM     17  C   UNL     1      23.838   8.061  60.344  1.00  0.00     0.039 A 
BRANCH  15  18
ATOM     18  N   UNL     1      25.746   6.710  60.905  1.00  0.00    -0.306 N 
ATOM     19  C   UNL     1      26.049   5.423  61.345  1.00  0.00     0.116 A 
ATOM     20  C   UNL     1      26.521   7.503  61.655  1.00  0.00     0.204 A 
ATOM     21  C   UNL     1      26.980   5.517  62.319  1.00  0.00     0.056 A 
ATOM     22  N   UNL     1      27.286   6.825  62.476  1.00  0.00    -0.242 NA
ATOM     23  C   UNL     1      27.636   4.397  63.089  1.00  0.00     0.068 C 
ENDBRANCH  15  18
BRANCH  16  24
ATOM     24  C   UNL     1      21.846   9.525  59.836  1.00  0.00     0.416 C 
ATOM     25  F   UNL     1      20.977   9.119  60.783  1.00  0.00    -0.166 F 
ATOM     26  F   UNL     1      22.414  10.576  60.417  1.00  0.00    -0.166 F 
ATOM     27  F   UNL     1      21.048   9.874  58.806  1.00  0.00    -0.166 F 
ENDBRANCH  16  24
ENDBRANCH  10  12
ENDBRANCH   1   8
BRANCH   6  28
ATOM     28  N   UNL     1      25.423   2.864  52.333  1.00  0.00    -0.324 N 
ATOM     29  H   UNL     1      24.735   2.098  52.316  1.00  0.00     0.170 HD
BRANCH  28  30
ATOM     30  C   UNL     1      26.774   2.602  52.097  1.00  0.00     0.227 A 
ATOM     31  N   UNL     1      27.611   3.222  51.275  1.00  0.00    -0.221 NA
ATOM     32  N   UNL     1      27.112   1.503  52.819  1.00  0.00    -0.213 NA
ATOM     33  C   UNL     1      28.864   2.734  51.205  1.00  0.00     0.117 A 
ATOM     34  C   UNL     1      28.360   1.036  52.692  1.00  0.00     0.077 A 
ATOM     35  C   UNL     1      29.254   1.642  51.882  1.00  0.00     0.049 A 
BRANCH  34  36
ATOM     36  C   UNL     1      28.690  -0.148  53.529  1.00  0.00     0.019 A 
ATOM     37  C   UNL     1      27.902  -0.512  54.632  1.00  0.00     0.013 A 
ATOM     38  C   UNL     1      29.824  -0.933  53.242  1.00  0.00     0.121 A 
ATOM     39  C   UNL     1      28.273  -1.613  55.393  1.00  0.00     0.021 A 
ATOM     40  N   UNL     1      30.192  -1.990  53.976  1.00  0.00    -0.264 NA
ATOM     41  C   UNL     1      29.405  -2.331  55.010  1.00  0.00     0.111 A 
ENDBRANCH  34  36
ENDBRANCH  28  30
ENDBRANCH   6  28
TORSDOF 7
ENDMDL
MODEL 20
REMARK VINA RESULT:   -10.318      3.463     11.140
REMARK INTER + INTRA:         -13.724
REMARK INTER:                 -12.407
REMARK INTRA:                  -1.317
REMARK CONF_INDEPENDENT:        2.088
REMARK UNBOUND:                -1.317
REMARK SMILES Cc1cn(-c2cc(NC(=O)c3ccc(C)c(Nc4nccc(-c5cccnc5)n4)c3)cc(C(F)(F)F)c2)cn1
REMARK SMILES IDX 11 1 12 2 13 3 14 4 15 5 16 6 30 7 9 8 10 9 8 10 7 12 6 13
REMARK SMILES IDX 31 14 5 15 32 16 37 17 4 18 3 19 38 20 2 21 39 22 1 23 33 24
REMARK SMILES IDX 34 25 35 26 36 27 17 28 18 30 19 31 29 32 20 33 22 34 21 35
REMARK SMILES IDX 23 36 24 37 28 38 25 39 27 40 26 41
REMARK H PARENT 8 11 17 29
ROOT
ATOM      1  C   UNL     1      25.623   3.807  51.275  1.00  0.00     0.042 A 
ATOM      2  C   UNL     1      25.370   3.596  49.911  1.00  0.00     0.014 A 
ATOM      3  C   UNL     1      24.456   4.385  49.211  1.00  0.00     0.006 A 
ATOM      4  C   UNL     1      23.702   5.353  49.854  1.00  0.00    -0.027 A 
ATOM      5  C   UNL     1      22.703   6.201  49.079  1.00  0.00     0.046 C 
ATOM      6  C   UNL     1      23.873   5.497  51.230  1.00  0.00     0.045 A 
ATOM      7  C   UNL     1      24.813   4.713  51.910  1.00  0.00     0.040 A 
ENDROOT
BRANCH   1   8
ATOM      8  C   UNL     1      26.473   2.944  52.119  1.00  0.00     0.255 C 
ATOM      9  O   UNL     1      26.052   2.729  53.229  1.00  0.00    -0.269 OA
ATOM     10  N   UNL     1      27.469   2.300  51.491  1.00  0.00    -0.322 N 
ATOM     11  H   UNL     1      27.603   2.507  50.492  1.00  0.00     0.170 HD
BRANCH  10  12
ATOM     12  C   UNL     1      28.335   1.379  52.067  1.00  0.00     0.044 A 
ATOM     13  C   UNL     1      29.543   1.015  51.423  1.00  0.00     0.052 A 
ATOM     14  C   UNL     1      27.973   0.694  53.248  1.00  0.00     0.039 A 
ATOM     15  C   UNL     1      30.425   0.097  51.999  1.00  0.00     0.049 A 
ATOM     16  C   UNL     1      28.883  -0.225  53.844  1.00  0.00     0.060 A 
ATOM     17  C   UNL     1      30.078  -0.532  53.190  1.00  0.00     0.039 A 
BRANCH  15  18
ATOM     18  N   UNL     1      31.644  -0.238  51.389  1.00  0.00    -0.306 N 
ATOM     19  C   UNL     1      31.932  -1.298  50.532  1.00  0.00     0.116 A 
ATOM     20  C   UNL     1      32.827   0.356  51.586  1.00  0.00     0.204 A 
ATOM     21  C   UNL     1      33.256  -1.275  50.263  1.00  0.00     0.056 A 
ATOM     22  N   UNL     1      33.792  -0.214  50.906  1.00  0.00    -0.242 NA
ATOM     23  C   UNL     1      34.038  -2.207  49.370  1.00  0.00     0.068 C 
ENDBRANCH  15  18
BRANCH  16  24
ATOM     24  C   UNL     1      28.500  -0.891  55.126  1.00  0.00     0.416 C 
ATOM     25  F   UNL     1      27.608  -1.893  55.003  1.00  0.00    -0.166 F 
ATOM     26  F   UNL     1      29.539  -1.513  55.670  1.00  0.00    -0.166 F 
ATOM     27  F   UNL     1      27.900  -0.041  55.986  1.00  0.00    -0.166 F 
ENDBRANCH  16  24
ENDBRANCH  10  12
ENDBRANCH   1   8
BRANCH   6  28
ATOM     28  N   UNL     1      23.245   6.573  51.871  1.00  0.00    -0.324 N 
ATOM     29  H   UNL     1      23.073   7.452  51.363  1.00  0.00     0.170 HD
BRANCH  28  30
ATOM     30  C   UNL     1      22.852   6.443  53.205  1.00  0.00     0.227 A 
ATOM     31  N   UNL     1      21.631   6.294  53.702  1.00  0.00    -0.221 NA
ATOM     32  N   UNL     1      23.963   6.576  53.975  1.00  0.00    -0.213 NA
ATOM     33  C   UNL     1      21.527   6.237  55.044  1.00  0.00     0.117 A 
ATOM     34  C   UNL     1      23.805   6.545  55.304  1.00  0.00     0.077 A 
ATOM     35  C   UNL     1      22.585   6.377  55.858  1.00  0.00     0.049 A 
BRANCH  34  36
ATOM     36  C   UNL     1      25.053   6.659  56.102  1.00  0.00     0.019 A 
ATOM     37  C   UNL     1      26.319   6.505  55.513  1.00  0.00     0.013 A 
ATOM     38  C   UNL     1      24.997   6.912  57.486  1.00  0.00     0.121 A 
ATOM     39  C   UNL     1      27.451   6.598  56.313  1.00  0.00     0.021 A 
ATOM     40  N   UNL     1      26.084   6.995  58.264  1.00  0.00    -0.264 NA
ATOM     41  C   UNL     1      27.282   6.869  57.670  1.00  0.00     0.111 A 
ENDBRANCH  34  36
ENDBRANCH  28  30
ENDBRANCH   6  28
TORSDOF 7
ENDMDL
