MODEL 1
REMARK VINA RESULT:   -15.152      0.000      0.000
REMARK INTER + INTRA:         -18.421
REMARK INTER:                 -17.240
REMARK INTRA:                  -1.181
REMARK CONF_INDEPENDENT:        2.088
REMARK UNBOUND:                -1.181
REMARK SMILES Cc1cn(-c2cc(NC(=O)c3ccc(C)c(Nc4nccc(-c5cccnc5)n4)c3)cc(C(F)(F)F)c2)cn1
REMARK SMILES IDX 11 1 12 2 13 3 14 4 15 5 16 6 30 7 9 8 10 9 8 10 7 12 6 13
REMARK SMILES IDX 31 14 5 15 32 16 37 17 4 18 3 19 38 20 2 21 39 22 1 23 33 24
REMARK SMILES IDX 34 25 35 26 36 27 17 28 18 30 19 31 29 32 20 33 22 34 21 35
REMARK SMILES IDX 23 36 24 37 28 38 25 39 27 40 26 41
REMARK H PARENT 8 11 17 29
ROOT
ATOM      1  C   UNL     1      27.981   1.866  53.225  1.00  0.00     0.042 A 
ATOM      2  C   UNL     1      27.704   1.359  54.504  1.00  0.00     0.014 A 
ATOM      3  C   UNL     1      28.426   0.288  55.032  1.00  0.00     0.006 A 
ATOM      4  C   UNL     1      29.388  -0.370  54.283  1.00  0.00    -0.027 A 
ATOM      5  C   UNL     1      30.162  -1.542  54.870  1.00  0.00     0.046 C 
ATOM      6  C   UNL     1      29.595   0.063  52.974  1.00  0.00     0.045 A 
ATOM      7  C   UNL     1      28.878   1.156  52.471  1.00  0.00     0.040 A 
ENDROOT
BRANCH   1   8
ATOM      8  C   UNL     1      27.188   2.907  52.541  1.00  0.00     0.255 C 
ATOM      9  O   UNL     1      27.534   3.165  51.415  1.00  0.00    -0.269 OA
ATOM     10  N   UNL     1      26.039   3.262  53.136  1.00  0.00    -0.322 N 
ATOM     11  H   UNL     1      25.834   2.833  54.050  1.00  0.00     0.170 HD
BRANCH  10  12
ATOM     12  C   UNL     1      25.101   4.155  52.632  1.00  0.00     0.044 A 
ATOM     13  C   UNL     1      24.177   4.799  53.491  1.00  0.00     0.052 A 
ATOM     14  C   UNL     1      24.970   4.348  51.240  1.00  0.00     0.039 A 
ATOM     15  C   UNL     1      23.236   5.706  52.995  1.00  0.00     0.049 A 
ATOM     16  C   UNL     1      24.026   5.289  50.739  1.00  0.00     0.060 A 
ATOM     17  C   UNL     1      23.153   5.926  51.624  1.00  0.00     0.039 A 
BRANCH  15  18
ATOM     18  N   UNL     1      22.344   6.381  53.842  1.00  0.00    -0.306 N 
ATOM     19  C   UNL     1      22.031   6.117  55.174  1.00  0.00     0.116 A 
ATOM     20  C   UNL     1      21.525   7.385  53.506  1.00  0.00     0.204 A 
ATOM     21  C   UNL     1      21.057   6.971  55.556  1.00  0.00     0.056 A 
ATOM     22  N   UNL     1      20.777   7.778  54.508  1.00  0.00    -0.242 NA
ATOM     23  C   UNL     1      20.402   7.087  56.911  1.00  0.00     0.068 C 
ENDBRANCH  15  18
BRANCH  16  24
ATOM     24  C   UNL     1      23.949   5.518  49.264  1.00  0.00     0.416 C 
ATOM     25  F   UNL     1      24.647   6.580  48.816  1.00  0.00    -0.166 F 
ATOM     26  F   UNL     1      24.512   4.518  48.596  1.00  0.00    -0.166 F 
ATOM     27  F   UNL     1      22.691   5.773  48.849  1.00  0.00    -0.166 F 
ENDBRANCH  16  24
ENDBRANCH  10  12
ENDBRANCH   1   8
BRANCH   6  28
ATOM     28  N   UNL     1      30.669  -0.477  52.255  1.00  0.00    -0.324 N 
ATOM     29  H   UNL     1      30.525  -1.287  51.636  1.00  0.00     0.170 HD
BRANCH  28  30
ATOM     30  C   UNL     1      31.938   0.092  52.385  1.00  0.00     0.227 A 
ATOM     31  N   UNL     1      32.338   1.054  53.207  1.00  0.00    -0.221 NA
ATOM     32  N   UNL     1      32.737  -0.461  51.437  1.00  0.00    -0.213 NA
ATOM     33  C   UNL     1      33.620   1.452  53.094  1.00  0.00     0.117 A 
ATOM     34  C   UNL     1      33.993  -0.011  51.342  1.00  0.00     0.077 A 
ATOM     35  C   UNL     1      34.453   0.954  52.167  1.00  0.00     0.049 A 
BRANCH  34  36
ATOM     36  C   UNL     1      34.837  -0.673  50.313  1.00  0.00     0.019 A 
ATOM     37  C   UNL     1      36.128  -0.211  50.012  1.00  0.00     0.013 A 
ATOM     38  C   UNL     1      34.350  -1.784  49.596  1.00  0.00     0.121 A 
ATOM     39  C   UNL     1      36.861  -0.854  49.022  1.00  0.00     0.021 A 
ATOM     40  N   UNL     1      35.049  -2.403  48.636  1.00  0.00    -0.264 NA
ATOM     41  C   UNL     1      36.291  -1.956  48.386  1.00  0.00     0.111 A 
ENDBRANCH  34  36
ENDBRANCH  28  30
ENDBRANCH   6  28
TORSDOF 7
ENDMDL
MODEL 2
REMARK VINA RESULT:   -14.182      2.226      3.673
REMARK INTER + INTRA:         -17.489
REMARK INTER:                 -16.270
REMARK INTRA:                  -1.219
REMARK CONF_INDEPENDENT:        2.088
REMARK UNBOUND:                -1.219
REMARK SMILES Cc1cn(-c2cc(NC(=O)c3ccc(C)c(Nc4nccc(-c5cccnc5)n4)c3)cc(C(F)(F)F)c2)cn1
REMARK SMILES IDX 11 1 12 2 13 3 14 4 15 5 16 6 30 7 9 8 10 9 8 10 7 12 6 13
REMARK SMILES IDX 31 14 5 15 32 16 37 17 4 18 3 19 38 20 2 21 39 22 1 23 33 24
REMARK SMILES IDX 34 25 35 26 36 27 17 28 18 30 19 31 29 32 20 33 22 34 21 35
REMARK SMILES IDX 23 36 24 37 28 38 25 39 27 40 26 41
REMARK H PARENT 8 11 17 29
ROOT
ATOM      1  C   UNL     1      28.121   1.659  53.601  1.00  0.00     0.042 A 
ATOM      2  C   UNL     1      27.923   1.079  54.863  1.00  0.00     0.014 A 
ATOM      3  C   UNL     1      28.694  -0.001  55.296  1.00  0.00     0.006 A 
ATOM      4  C   UNL     1      29.628  -0.595  54.463  1.00  0.00    -0.027 A 
ATOM      5  C   UNL     1      30.457  -1.778  54.945  1.00  0.00     0.046 C 
ATOM      6  C   UNL     1      29.757  -0.089  53.170  1.00  0.00     0.045 A 
ATOM      7  C   UNL     1      28.991   1.011  52.764  1.00  0.00     0.040 A 
ENDROOT
BRANCH   1   8
ATOM      8  C   UNL     1      27.271   2.715  53.016  1.00  0.00     0.255 C 
ATOM      9  O   UNL     1      27.698   3.226  52.010  1.00  0.00    -0.269 OA
ATOM     10  N   UNL     1      26.027   2.814  53.508  1.00  0.00    -0.322 N 
ATOM     11  H   UNL     1      25.785   2.196  54.296  1.00  0.00     0.170 HD
BRANCH  10  12
ATOM     12  C   UNL     1      25.036   3.675  53.054  1.00  0.00     0.044 A 
ATOM     13  C   UNL     1      24.879   3.937  51.670  1.00  0.00     0.052 A 
ATOM     14  C   UNL     1      24.241   4.401  53.967  1.00  0.00     0.039 A 
ATOM     15  C   UNL     1      23.878   4.793  51.202  1.00  0.00     0.049 A 
ATOM     16  C   UNL     1      23.207   5.255  53.488  1.00  0.00     0.060 A 
ATOM     17  C   UNL     1      23.068   5.462  52.114  1.00  0.00     0.039 A 
BRANCH  15  18
ATOM     18  N   UNL     1      23.687   5.026  49.832  1.00  0.00    -0.306 N 
ATOM     19  C   UNL     1      23.786   6.223  49.125  1.00  0.00     0.116 A 
ATOM     20  C   UNL     1      23.273   4.140  48.919  1.00  0.00     0.204 A 
ATOM     21  C   UNL     1      23.434   5.987  47.843  1.00  0.00     0.056 A 
ATOM     22  N   UNL     1      23.147   4.671  47.727  1.00  0.00    -0.242 NA
ATOM     23  C   UNL     1      23.401   6.965  46.693  1.00  0.00     0.068 C 
ENDBRANCH  15  18
BRANCH  16  24
ATOM     24  C   UNL     1      22.341   5.965  54.478  1.00  0.00     0.416 C 
ATOM     25  F   UNL     1      21.723   5.166  55.370  1.00  0.00    -0.166 F 
ATOM     26  F   UNL     1      23.064   6.751  55.267  1.00  0.00    -0.166 F 
ATOM     27  F   UNL     1      21.322   6.623  53.888  1.00  0.00    -0.166 F 
ENDBRANCH  16  24
ENDBRANCH  10  12
ENDBRANCH   1   8
BRANCH   6  28
ATOM     28  N   UNL     1      30.803  -0.564  52.369  1.00  0.00    -0.324 N 
ATOM     29  H   UNL     1      30.644  -1.347  51.719  1.00  0.00     0.170 HD
BRANCH  28  30
ATOM     30  C   UNL     1      32.062   0.031  52.459  1.00  0.00     0.227 A 
ATOM     31  N   UNL     1      32.466   1.008  53.261  1.00  0.00    -0.221 NA
ATOM     32  N   UNL     1      32.846  -0.514  51.493  1.00  0.00    -0.213 NA
ATOM     33  C   UNL     1      33.735   1.431  53.110  1.00  0.00     0.117 A 
ATOM     34  C   UNL     1      34.090  -0.039  51.360  1.00  0.00     0.077 A 
ATOM     35  C   UNL     1      34.553   0.942  52.164  1.00  0.00     0.049 A 
BRANCH  34  36
ATOM     36  C   UNL     1      34.918  -0.693  50.313  1.00  0.00     0.019 A 
ATOM     37  C   UNL     1      36.207  -0.232  50.000  1.00  0.00     0.013 A 
ATOM     38  C   UNL     1      34.418  -1.794  49.589  1.00  0.00     0.121 A 
ATOM     39  C   UNL     1      36.925  -0.866  48.995  1.00  0.00     0.021 A 
ATOM     40  N   UNL     1      35.103  -2.404  48.614  1.00  0.00    -0.264 NA
ATOM     41  C   UNL     1      36.343  -1.959  48.353  1.00  0.00     0.111 A 
ENDBRANCH  34  36
ENDBRANCH  28  30
ENDBRANCH   6  28
TORSDOF 7
ENDMDL
MODEL 3
REMARK VINA RESULT:   -12.504      1.519      3.590
REMARK INTER + INTRA:         -16.162
REMARK INTER:                 -14.592
REMARK INTRA:                  -1.570
REMARK CONF_INDEPENDENT:        2.088
REMARK UNBOUND:                -1.570
REMARK SMILES Cc1cn(-c2cc(NC(=O)c3ccc(C)c(Nc4nccc(-c5cccnc5)n4)c3)cc(C(F)(F)F)c2)cn1
REMARK SMILES IDX 11 1 12 2 13 3 14 4 15 5 16 6 30 7 9 8 10 9 8 10 7 12 6 13
REMARK SMILES IDX 31 14 5 15 32 16 37 17 4 18 3 19 38 20 2 21 39 22 1 23 33 24
REMARK SMILES IDX 34 25 35 26 36 27 17 28 18 30 19 31 29 32 20 33 22 34 21 35
REMARK SMILES IDX 23 36 24 37 28 38 25 39 27 40 26 41
REMARK H PARENT 8 11 17 29
ROOT
ATOM      1  C   UNL     1      27.699   1.649  52.951  1.00  0.00     0.042 A 
ATOM      2  C   UNL     1      27.349   1.053  54.172  1.00  0.00     0.014 A 
ATOM      3  C   UNL     1      28.028  -0.066  54.656  1.00  0.00     0.006 A 
ATOM      4  C   UNL     1      29.021  -0.682  53.911  1.00  0.00    -0.027 A 
ATOM      5  C   UNL     1      29.748  -1.906  54.448  1.00  0.00     0.046 C 
ATOM      6  C   UNL     1      29.302  -0.156  52.651  1.00  0.00     0.045 A 
ATOM      7  C   UNL     1      28.626   0.982  52.194  1.00  0.00     0.040 A 
ENDROOT
BRANCH   1   8
ATOM      8  C   UNL     1      26.956   2.750  52.306  1.00  0.00     0.255 C 
ATOM      9  O   UNL     1      27.234   2.954  51.150  1.00  0.00    -0.269 OA
ATOM     10  N   UNL     1      25.899   3.225  52.981  1.00  0.00    -0.322 N 
ATOM     11  H   UNL     1      25.728   2.834  53.918  1.00  0.00     0.170 HD
BRANCH  10  12
ATOM     12  C   UNL     1      25.013   4.196  52.531  1.00  0.00     0.044 A 
ATOM     13  C   UNL     1      24.187   4.903  53.439  1.00  0.00     0.052 A 
ATOM     14  C   UNL     1      24.829   4.414  51.148  1.00  0.00     0.039 A 
ATOM     15  C   UNL     1      23.300   5.889  52.997  1.00  0.00     0.049 A 
ATOM     16  C   UNL     1      23.941   5.434  50.701  1.00  0.00     0.060 A 
ATOM     17  C   UNL     1      23.167   6.129  51.633  1.00  0.00     0.039 A 
BRANCH  15  18
ATOM     18  N   UNL     1      22.508   6.625  53.892  1.00  0.00    -0.306 N 
ATOM     19  C   UNL     1      21.945   6.219  55.100  1.00  0.00     0.116 A 
ATOM     20  C   UNL     1      22.048   7.869  53.717  1.00  0.00     0.204 A 
ATOM     21  C   UNL     1      21.191   7.234  55.576  1.00  0.00     0.056 A 
ATOM     22  N   UNL     1      21.295   8.269  54.713  1.00  0.00    -0.242 NA
ATOM     23  C   UNL     1      20.400   7.280  56.861  1.00  0.00     0.068 C 
ENDBRANCH  15  18
BRANCH  16  24
ATOM     24  C   UNL     1      23.810   5.684  49.234  1.00  0.00     0.416 C 
ATOM     25  F   UNL     1      24.021   4.607  48.451  1.00  0.00    -0.166 F 
ATOM     26  F   UNL     1      22.565   6.016  48.915  1.00  0.00    -0.166 F 
ATOM     27  F   UNL     1      24.714   6.580  48.784  1.00  0.00    -0.166 F 
ENDBRANCH  16  24
ENDBRANCH  10  12
ENDBRANCH   1   8
BRANCH   6  28
ATOM     28  N   UNL     1      30.407  -0.659  51.951  1.00  0.00    -0.324 N 
ATOM     29  H   UNL     1      30.299  -1.466  51.321  1.00  0.00     0.170 HD
BRANCH  28  30
ATOM     30  C   UNL     1      31.656  -0.055  52.114  1.00  0.00     0.227 A 
ATOM     31  N   UNL     1      32.796  -0.322  51.491  1.00  0.00    -0.221 NA
ATOM     32  N   UNL     1      31.548   0.850  53.120  1.00  0.00    -0.213 NA
ATOM     33  C   UNL     1      33.875   0.387  51.873  1.00  0.00     0.117 A 
ATOM     34  C   UNL     1      32.654   1.507  53.487  1.00  0.00     0.077 A 
ATOM     35  C   UNL     1      33.835   1.284  52.871  1.00  0.00     0.049 A 
BRANCH  34  36
ATOM     36  C   UNL     1      32.476   2.511  54.569  1.00  0.00     0.019 A 
ATOM     37  C   UNL     1      33.356   3.594  54.719  1.00  0.00     0.013 A 
ATOM     38  C   UNL     1      31.416   2.391  55.489  1.00  0.00     0.121 A 
ATOM     39  C   UNL     1      33.156   4.487  55.763  1.00  0.00     0.021 A 
ATOM     40  N   UNL     1      31.222   3.244  56.502  1.00  0.00    -0.264 NA
ATOM     41  C   UNL     1      32.064   4.285  56.607  1.00  0.00     0.111 A 
ENDBRANCH  34  36
ENDBRANCH  28  30
ENDBRANCH   6  28
TORSDOF 7
ENDMDL
MODEL 4
REMARK VINA RESULT:   -12.049      1.512      2.223
REMARK INTER + INTRA:         -15.592
REMARK INTER:                 -14.137
REMARK INTRA:                  -1.455
REMARK CONF_INDEPENDENT:        2.088
REMARK UNBOUND:                -1.455
REMARK SMILES Cc1cn(-c2cc(NC(=O)c3ccc(C)c(Nc4nccc(-c5cccnc5)n4)c3)cc(C(F)(F)F)c2)cn1
REMARK SMILES IDX 11 1 12 2 13 3 14 4 15 5 16 6 30 7 9 8 10 9 8 10 7 12 6 13
REMARK SMILES IDX 31 14 5 15 32 16 37 17 4 18 3 19 38 20 2 21 39 22 1 23 33 24
REMARK SMILES IDX 34 25 35 26 36 27 17 28 18 30 19 31 29 32 20 33 22 34 21 35
REMARK SMILES IDX 23 36 24 37 28 38 25 39 27 40 26 41
REMARK H PARENT 8 11 17 29
ROOT
ATOM      1  C   UNL     1      27.786   1.709  53.334  1.00  0.00     0.042 A 
ATOM      2  C   UNL     1      27.105   0.518  53.628  1.00  0.00     0.014 A 
ATOM      3  C   UNL     1      27.731  -0.528  54.309  1.00  0.00     0.006 A 
ATOM      4  C   UNL     1      29.072  -0.463  54.648  1.00  0.00    -0.027 A 
ATOM      5  C   UNL     1      29.743  -1.614  55.384  1.00  0.00     0.046 C 
ATOM      6  C   UNL     1      29.781   0.675  54.268  1.00  0.00     0.045 A 
ATOM      7  C   UNL     1      29.129   1.724  53.607  1.00  0.00     0.040 A 
ENDROOT
BRANCH   1   8
ATOM      8  C   UNL     1      27.245   2.809  52.512  1.00  0.00     0.255 C 
ATOM      9  O   UNL     1      27.976   3.213  51.641  1.00  0.00    -0.269 OA
ATOM     10  N   UNL     1      25.935   3.063  52.651  1.00  0.00    -0.322 N 
ATOM     11  H   UNL     1      25.427   2.520  53.364  1.00  0.00     0.170 HD
BRANCH  10  12
ATOM     12  C   UNL     1      25.201   3.990  51.922  1.00  0.00     0.044 A 
ATOM     13  C   UNL     1      24.444   4.994  52.576  1.00  0.00     0.052 A 
ATOM     14  C   UNL     1      25.097   3.880  50.518  1.00  0.00     0.039 A 
ATOM     15  C   UNL     1      23.711   5.938  51.851  1.00  0.00     0.049 A 
ATOM     16  C   UNL     1      24.368   4.856  49.780  1.00  0.00     0.060 A 
ATOM     17  C   UNL     1      23.660   5.847  50.464  1.00  0.00     0.039 A 
BRANCH  15  18
ATOM     18  N   UNL     1      22.992   6.961  52.487  1.00  0.00    -0.306 N 
ATOM     19  C   UNL     1      22.935   8.317  52.173  1.00  0.00     0.116 A 
ATOM     20  C   UNL     1      22.268   6.854  53.608  1.00  0.00     0.204 A 
ATOM     21  C   UNL     1      22.185   8.937  53.110  1.00  0.00     0.056 A 
ATOM     22  N   UNL     1      21.751   7.999  53.981  1.00  0.00    -0.242 NA
ATOM     23  C   UNL     1      21.820  10.399  53.190  1.00  0.00     0.068 C 
ENDBRANCH  15  18
BRANCH  16  24
ATOM     24  C   UNL     1      24.325   4.750  48.291  1.00  0.00     0.416 C 
ATOM     25  F   UNL     1      23.088   4.764  47.754  1.00  0.00    -0.166 F 
ATOM     26  F   UNL     1      24.885   5.810  47.720  1.00  0.00    -0.166 F 
ATOM     27  F   UNL     1      24.846   3.588  47.844  1.00  0.00    -0.166 F 
ENDBRANCH  16  24
ENDBRANCH  10  12
ENDBRANCH   1   8
BRANCH   6  28
ATOM     28  N   UNL     1      31.090   0.834  54.740  1.00  0.00    -0.324 N 
ATOM     29  H   UNL     1      31.292   0.759  55.747  1.00  0.00     0.170 HD
BRANCH  28  30
ATOM     30  C   UNL     1      32.120   1.096  53.834  1.00  0.00     0.227 A 
ATOM     31  N   UNL     1      33.061   2.030  53.890  1.00  0.00    -0.221 NA
ATOM     32  N   UNL     1      31.966   0.253  52.781  1.00  0.00    -0.213 NA
ATOM     33  C   UNL     1      33.914   2.094  52.851  1.00  0.00     0.117 A 
ATOM     34  C   UNL     1      32.819   0.375  51.757  1.00  0.00     0.077 A 
ATOM     35  C   UNL     1      33.804   1.298  51.775  1.00  0.00     0.049 A 
BRANCH  34  36
ATOM     36  C   UNL     1      32.630  -0.593  50.645  1.00  0.00     0.019 A 
ATOM     37  C   UNL     1      31.352  -0.930  50.172  1.00  0.00     0.013 A 
ATOM     38  C   UNL     1      33.741  -1.215  50.042  1.00  0.00     0.121 A 
ATOM     39  C   UNL     1      31.235  -1.860  49.147  1.00  0.00     0.021 A 
ATOM     40  N   UNL     1      33.635  -2.119  49.059  1.00  0.00    -0.264 NA
ATOM     41  C   UNL     1      32.402  -2.403  48.609  1.00  0.00     0.111 A 
ENDBRANCH  34  36
ENDBRANCH  28  30
ENDBRANCH   6  28
TORSDOF 7
ENDMDL
MODEL 5
REMARK VINA RESULT:   -11.780      3.143      4.206
REMARK INTER + INTRA:         -14.879
REMARK INTER:                 -13.868
REMARK INTRA:                  -1.011
REMARK CONF_INDEPENDENT:        2.088
REMARK UNBOUND:                -1.011
REMARK SMILES Cc1cn(-c2cc(NC(=O)c3ccc(C)c(Nc4nccc(-c5cccnc5)n4)c3)cc(C(F)(F)F)c2)cn1
REMARK SMILES IDX 11 1 12 2 13 3 14 4 15 5 16 6 30 7 9 8 10 9 8 10 7 12 6 13
REMARK SMILES IDX 31 14 5 15 32 16 37 17 4 18 3 19 38 20 2 21 39 22 1 23 33 24
REMARK SMILES IDX 34 25 35 26 36 27 17 28 18 30 19 31 29 32 20 33 22 34 21 35
REMARK SMILES IDX 23 36 24 37 28 38 25 39 27 40 26 41
REMARK H PARENT 8 11 17 29
ROOT
ATOM      1  C   UNL     1      28.186   2.530  52.581  1.00  0.00     0.042 A 
ATOM      2  C   UNL     1      28.108   3.059  53.878  1.00  0.00     0.014 A 
ATOM      3  C   UNL     1      29.189   2.990  54.757  1.00  0.00     0.006 A 
ATOM      4  C   UNL     1      30.354   2.323  54.413  1.00  0.00    -0.027 A 
ATOM      5  C   UNL     1      31.522   2.249  55.385  1.00  0.00     0.046 C 
ATOM      6  C   UNL     1      30.399   1.705  53.165  1.00  0.00     0.045 A 
ATOM      7  C   UNL     1      29.312   1.807  52.287  1.00  0.00     0.040 A 
ENDROOT
BRANCH   1   8
ATOM      8  C   UNL     1      27.056   2.446  51.635  1.00  0.00     0.255 C 
ATOM      9  O   UNL     1      26.684   1.329  51.369  1.00  0.00    -0.269 OA
ATOM     10  N   UNL     1      26.413   3.595  51.377  1.00  0.00    -0.322 N 
ATOM     11  H   UNL     1      26.797   4.451  51.803  1.00  0.00     0.170 HD
BRANCH  10  12
ATOM     12  C   UNL     1      25.279   3.737  50.588  1.00  0.00     0.044 A 
ATOM     13  C   UNL     1      24.529   2.605  50.182  1.00  0.00     0.052 A 
ATOM     14  C   UNL     1      24.917   5.000  50.072  1.00  0.00     0.039 A 
ATOM     15  C   UNL     1      23.381   2.738  49.397  1.00  0.00     0.049 A 
ATOM     16  C   UNL     1      23.734   5.136  49.290  1.00  0.00     0.060 A 
ATOM     17  C   UNL     1      23.007   3.997  48.938  1.00  0.00     0.039 A 
BRANCH  15  18
ATOM     18  N   UNL     1      22.609   1.627  49.025  1.00  0.00    -0.306 N 
ATOM     19  C   UNL     1      22.211   0.538  49.799  1.00  0.00     0.116 A 
ATOM     20  C   UNL     1      22.162   1.336  47.797  1.00  0.00     0.204 A 
ATOM     21  C   UNL     1      21.553  -0.330  49.000  1.00  0.00     0.056 A 
ATOM     22  N   UNL     1      21.504   0.203  47.759  1.00  0.00    -0.242 NA
ATOM     23  C   UNL     1      20.917  -1.644  49.382  1.00  0.00     0.068 C 
ENDBRANCH  15  18
BRANCH  16  24
ATOM     24  C   UNL     1      23.341   6.495  48.807  1.00  0.00     0.416 C 
ATOM     25  F   UNL     1      23.768   7.517  49.574  1.00  0.00    -0.166 F 
ATOM     26  F   UNL     1      23.911   6.770  47.640  1.00  0.00    -0.166 F 
ATOM     27  F   UNL     1      22.003   6.661  48.778  1.00  0.00    -0.166 F 
ENDBRANCH  16  24
ENDBRANCH  10  12
ENDBRANCH   1   8
BRANCH   6  28
ATOM     28  N   UNL     1      31.617   1.166  52.731  1.00  0.00    -0.324 N 
ATOM     29  H   UNL     1      32.499   1.446  53.184  1.00  0.00     0.170 HD
BRANCH  28  30
ATOM     30  C   UNL     1      31.627   0.247  51.680  1.00  0.00     0.227 A 
ATOM     31  N   UNL     1      30.609  -0.410  51.140  1.00  0.00    -0.221 NA
ATOM     32  N   UNL     1      32.920   0.050  51.317  1.00  0.00    -0.213 NA
ATOM     33  C   UNL     1      30.903  -1.281  50.156  1.00  0.00     0.117 A 
ATOM     34  C   UNL     1      33.167  -0.849  50.357  1.00  0.00     0.077 A 
ATOM     35  C   UNL     1      32.163  -1.530  49.764  1.00  0.00     0.049 A 
BRANCH  34  36
ATOM     36  C   UNL     1      34.594  -1.002  49.971  1.00  0.00     0.019 A 
ATOM     37  C   UNL     1      35.598  -0.200  50.536  1.00  0.00     0.013 A 
ATOM     38  C   UNL     1      34.976  -1.955  49.007  1.00  0.00     0.121 A 
ATOM     39  C   UNL     1      36.912  -0.370  50.118  1.00  0.00     0.021 A 
ATOM     40  N   UNL     1      36.240  -2.118  48.595  1.00  0.00    -0.264 NA
ATOM     41  C   UNL     1      37.184  -1.355  49.170  1.00  0.00     0.111 A 
ENDBRANCH  34  36
ENDBRANCH  28  30
ENDBRANCH   6  28
TORSDOF 7
ENDMDL
MODEL 6
REMARK VINA RESULT:   -11.625      2.898      4.390
REMARK INTER + INTRA:         -14.648
REMARK INTER:                 -13.713
REMARK INTRA:                  -0.935
REMARK CONF_INDEPENDENT:        2.088
REMARK UNBOUND:                -0.935
REMARK SMILES Cc1cn(-c2cc(NC(=O)c3ccc(C)c(Nc4nccc(-c5cccnc5)n4)c3)cc(C(F)(F)F)c2)cn1
REMARK SMILES IDX 11 1 12 2 13 3 14 4 15 5 16 6 30 7 9 8 10 9 8 10 7 12 6 13
REMARK SMILES IDX 31 14 5 15 32 16 37 17 4 18 3 19 38 20 2 21 39 22 1 23 33 24
REMARK SMILES IDX 34 25 35 26 36 27 17 28 18 30 19 31 29 32 20 33 22 34 21 35
REMARK SMILES IDX 23 36 24 37 28 38 25 39 27 40 26 41
REMARK H PARENT 8 11 17 29
ROOT
ATOM      1  C   UNL     1      28.660   2.800  53.665  1.00  0.00     0.042 A 
ATOM      2  C   UNL     1      28.954   3.550  54.813  1.00  0.00     0.014 A 
ATOM      3  C   UNL     1      30.246   3.597  55.339  1.00  0.00     0.006 A 
ATOM      4  C   UNL     1      31.271   2.838  54.797  1.00  0.00    -0.027 A 
ATOM      5  C   UNL     1      32.673   2.894  55.386  1.00  0.00     0.046 C 
ATOM      6  C   UNL     1      30.961   2.011  53.719  1.00  0.00     0.045 A 
ATOM      7  C   UNL     1      29.664   1.997  53.190  1.00  0.00     0.040 A 
ENDROOT
BRANCH   1   8
ATOM      8  C   UNL     1      27.305   2.593  53.117  1.00  0.00     0.255 C 
ATOM      9  O   UNL     1      26.927   1.447  53.087  1.00  0.00    -0.269 OA
ATOM     10  N   UNL     1      26.558   3.695  52.954  1.00  0.00    -0.322 N 
ATOM     11  H   UNL     1      27.007   4.599  53.158  1.00  0.00     0.170 HD
BRANCH  10  12
ATOM     12  C   UNL     1      25.234   3.729  52.534  1.00  0.00     0.044 A 
ATOM     13  C   UNL     1      24.844   3.131  51.310  1.00  0.00     0.052 A 
ATOM     14  C   UNL     1      24.270   4.464  53.258  1.00  0.00     0.039 A 
ATOM     15  C   UNL     1      23.513   3.151  50.884  1.00  0.00     0.049 A 
ATOM     16  C   UNL     1      22.910   4.464  52.834  1.00  0.00     0.060 A 
ATOM     17  C   UNL     1      22.563   3.836  51.636  1.00  0.00     0.039 A 
BRANCH  15  18
ATOM     18  N   UNL     1      23.109   2.526  49.695  1.00  0.00    -0.306 N 
ATOM     19  C   UNL     1      22.325   1.386  49.527  1.00  0.00     0.116 A 
ATOM     20  C   UNL     1      23.480   2.854  48.452  1.00  0.00     0.204 A 
ATOM     21  C   UNL     1      22.268   1.103  48.207  1.00  0.00     0.056 A 
ATOM     22  N   UNL     1      22.970   2.052  47.549  1.00  0.00    -0.242 NA
ATOM     23  C   UNL     1      21.525  -0.023  47.530  1.00  0.00     0.068 C 
ENDBRANCH  15  18
BRANCH  16  24
ATOM     24  C   UNL     1      21.899   5.200  53.653  1.00  0.00     0.416 C 
ATOM     25  F   UNL     1      22.413   6.065  54.550  1.00  0.00    -0.166 F 
ATOM     26  F   UNL     1      21.160   5.999  52.892  1.00  0.00    -0.166 F 
ATOM     27  F   UNL     1      21.151   4.372  54.410  1.00  0.00    -0.166 F 
ENDBRANCH  16  24
ENDBRANCH  10  12
ENDBRANCH   1   8
BRANCH   6  28
ATOM     28  N   UNL     1      32.009   1.362  53.054  1.00  0.00    -0.324 N 
ATOM     29  H   UNL     1      32.985   1.531  53.334  1.00  0.00     0.170 HD
BRANCH  28  30
ATOM     30  C   UNL     1      31.719   0.482  52.009  1.00  0.00     0.227 A 
ATOM     31  N   UNL     1      30.541   0.012  51.619  1.00  0.00    -0.221 NA
ATOM     32  N   UNL     1      32.898   0.092  51.460  1.00  0.00    -0.213 NA
ATOM     33  C   UNL     1      30.547  -0.867  50.599  1.00  0.00     0.117 A 
ATOM     34  C   UNL     1      32.856  -0.808  50.471  1.00  0.00     0.077 A 
ATOM     35  C   UNL     1      31.681  -1.302  50.026  1.00  0.00     0.049 A 
BRANCH  34  36
ATOM     36  C   UNL     1      34.170  -1.176  49.881  1.00  0.00     0.019 A 
ATOM     37  C   UNL     1      35.277  -0.317  49.958  1.00  0.00     0.013 A 
ATOM     38  C   UNL     1      34.333  -2.404  49.210  1.00  0.00     0.121 A 
ATOM     39  C   UNL     1      36.473  -0.703  49.367  1.00  0.00     0.021 A 
ATOM     40  N   UNL     1      35.482  -2.778  48.631  1.00  0.00    -0.264 NA
ATOM     41  C   UNL     1      36.532  -1.948  48.742  1.00  0.00     0.111 A 
ENDBRANCH  34  36
ENDBRANCH  28  30
ENDBRANCH   6  28
TORSDOF 7
ENDMDL
MODEL 7
REMARK VINA RESULT:   -11.517      3.757     11.770
REMARK INTER + INTRA:         -14.773
REMARK INTER:                 -13.605
REMARK INTRA:                  -1.168
REMARK CONF_INDEPENDENT:        2.088
REMARK UNBOUND:                -1.168
REMARK SMILES Cc1cn(-c2cc(NC(=O)c3ccc(C)c(Nc4nccc(-c5cccnc5)n4)c3)cc(C(F)(F)F)c2)cn1
REMARK SMILES IDX 11 1 12 2 13 3 14 4 15 5 16 6 30 7 9 8 10 9 8 10 7 12 6 13
REMARK SMILES IDX 31 14 5 15 32 16 37 17 4 18 3 19 38 20 2 21 39 22 1 23 33 24
REMARK SMILES IDX 34 25 35 26 36 27 17 28 18 30 19 31 29 32 20 33 22 34 21 35
REMARK SMILES IDX 23 36 24 37 28 38 25 39 27 40 26 41
REMARK H PARENT 8 11 17 29
ROOT
ATOM      1  C   UNL     1      25.934   3.799  51.882  1.00  0.00     0.042 A 
ATOM      2  C   UNL     1      25.294   4.216  50.706  1.00  0.00     0.014 A 
ATOM      3  C   UNL     1      24.160   5.030  50.744  1.00  0.00     0.006 A 
ATOM      4  C   UNL     1      23.575   5.390  51.947  1.00  0.00    -0.027 A 
ATOM      5  C   UNL     1      22.334   6.272  51.973  1.00  0.00     0.046 C 
ATOM      6  C   UNL     1      24.146   4.893  53.118  1.00  0.00     0.045 A 
ATOM      7  C   UNL     1      25.298   4.099  53.059  1.00  0.00     0.040 A 
ENDROOT
BRANCH   1   8
ATOM      8  C   UNL     1      27.055   2.841  51.938  1.00  0.00     0.255 C 
ATOM      9  O   UNL     1      27.791   2.847  50.982  1.00  0.00    -0.269 OA
ATOM     10  N   UNL     1      27.278   2.260  53.127  1.00  0.00    -0.322 N 
ATOM     11  H   UNL     1      26.615   2.476  53.885  1.00  0.00     0.170 HD
BRANCH  10  12
ATOM     12  C   UNL     1      28.322   1.395  53.429  1.00  0.00     0.044 A 
ATOM     13  C   UNL     1      29.633   1.641  52.949  1.00  0.00     0.052 A 
ATOM     14  C   UNL     1      28.077   0.188  54.120  1.00  0.00     0.039 A 
ATOM     15  C   UNL     1      30.691   0.781  53.256  1.00  0.00     0.049 A 
ATOM     16  C   UNL     1      29.161  -0.674  54.451  1.00  0.00     0.060 A 
ATOM     17  C   UNL     1      30.443  -0.379  53.983  1.00  0.00     0.039 A 
BRANCH  15  18
ATOM     18  N   UNL     1      32.000   1.038  52.821  1.00  0.00    -0.306 N 
ATOM     19  C   UNL     1      32.649   0.576  51.678  1.00  0.00     0.116 A 
ATOM     20  C   UNL     1      32.943   1.722  53.479  1.00  0.00     0.204 A 
ATOM     21  C   UNL     1      33.928   1.009  51.714  1.00  0.00     0.056 A 
ATOM     22  N   UNL     1      34.083   1.752  52.833  1.00  0.00    -0.242 NA
ATOM     23  C   UNL     1      35.015   0.783  50.692  1.00  0.00     0.068 C 
ENDBRANCH  15  18
BRANCH  16  24
ATOM     24  C   UNL     1      28.881  -1.915  55.235  1.00  0.00     0.416 C 
ATOM     25  F   UNL     1      28.047  -2.790  54.640  1.00  0.00    -0.166 F 
ATOM     26  F   UNL     1      29.982  -2.643  55.385  1.00  0.00    -0.166 F 
ATOM     27  F   UNL     1      28.274  -1.653  56.411  1.00  0.00    -0.166 F 
ENDBRANCH  16  24
ENDBRANCH  10  12
ENDBRANCH   1   8
BRANCH   6  28
ATOM     28  N   UNL     1      23.672   5.373  54.346  1.00  0.00    -0.324 N 
ATOM     29  H   UNL     1      22.708   5.171  54.645  1.00  0.00     0.170 HD
BRANCH  28  30
ATOM     30  C   UNL     1      24.519   6.127  55.161  1.00  0.00     0.227 A 
ATOM     31  N   UNL     1      25.814   6.374  55.013  1.00  0.00    -0.221 NA
ATOM     32  N   UNL     1      23.798   6.535  56.237  1.00  0.00    -0.213 NA
ATOM     33  C   UNL     1      26.405   7.103  55.979  1.00  0.00     0.117 A 
ATOM     34  C   UNL     1      24.436   7.229  57.186  1.00  0.00     0.077 A 
ATOM     35  C   UNL     1      25.750   7.521  57.073  1.00  0.00     0.049 A 
BRANCH  34  36
ATOM     36  C   UNL     1      23.596   7.682  58.325  1.00  0.00     0.019 A 
ATOM     37  C   UNL     1      22.271   7.245  58.482  1.00  0.00     0.013 A 
ATOM     38  C   UNL     1      24.109   8.584  59.278  1.00  0.00     0.121 A 
ATOM     39  C   UNL     1      21.525   7.722  59.552  1.00  0.00     0.021 A 
ATOM     40  N   UNL     1      23.392   9.053  60.307  1.00  0.00    -0.264 NA
ATOM     41  C   UNL     1      22.136   8.599  60.447  1.00  0.00     0.111 A 
ENDBRANCH  34  36
ENDBRANCH  28  30
ENDBRANCH   6  28
TORSDOF 7
ENDMDL
MODEL 8
REMARK VINA RESULT:   -11.439      1.994      3.017
REMARK INTER + INTRA:         -14.815
REMARK INTER:                 -13.527
REMARK INTRA:                  -1.287
REMARK CONF_INDEPENDENT:        2.088
REMARK UNBOUND:                -1.287
REMARK SMILES Cc1cn(-c2cc(NC(=O)c3ccc(C)c(Nc4nccc(-c5cccnc5)n4)c3)cc(C(F)(F)F)c2)cn1
REMARK SMILES IDX 11 1 12 2 13 3 14 4 15 5 16 6 30 7 9 8 10 9 8 10 7 12 6 13
REMARK SMILES IDX 31 14 5 15 32 16 37 17 4 18 3 19 38 20 2 21 39 22 1 23 33 24
REMARK SMILES IDX 34 25 35 26 36 27 17 28 18 30 19 31 29 32 20 33 22 34 21 35
REMARK SMILES IDX 23 36 24 37 28 38 25 39 27 40 26 41
REMARK H PARENT 8 11 17 29
ROOT
ATOM      1  C   UNL     1      26.975   2.408  52.412  1.00  0.00     0.042 A 
ATOM      2  C   UNL     1      27.123   1.036  52.162  1.00  0.00     0.014 A 
ATOM      3  C   UNL     1      27.899   0.225  52.992  1.00  0.00     0.006 A 
ATOM      4  C   UNL     1      28.621   0.759  54.047  1.00  0.00    -0.027 A 
ATOM      5  C   UNL     1      29.470  -0.136  54.939  1.00  0.00     0.046 C 
ATOM      6  C   UNL     1      28.561   2.139  54.238  1.00  0.00     0.045 A 
ATOM      7  C   UNL     1      27.756   2.931  53.410  1.00  0.00     0.040 A 
ENDROOT
BRANCH   1   8
ATOM      8  C   UNL     1      26.281   3.358  51.520  1.00  0.00     0.255 C 
ATOM      9  O   UNL     1      26.564   3.271  50.350  1.00  0.00    -0.269 OA
ATOM     10  N   UNL     1      25.249   4.026  52.055  1.00  0.00    -0.322 N 
ATOM     11  H   UNL     1      25.064   3.876  53.057  1.00  0.00     0.170 HD
BRANCH  10  12
ATOM     12  C   UNL     1      24.407   4.903  51.382  1.00  0.00     0.044 A 
ATOM     13  C   UNL     1      23.794   5.986  52.059  1.00  0.00     0.052 A 
ATOM     14  C   UNL     1      24.048   4.663  50.038  1.00  0.00     0.039 A 
ATOM     15  C   UNL     1      22.953   6.879  51.388  1.00  0.00     0.049 A 
ATOM     16  C   UNL     1      23.209   5.586  49.350  1.00  0.00     0.060 A 
ATOM     17  C   UNL     1      22.650   6.659  50.049  1.00  0.00     0.039 A 
BRANCH  15  18
ATOM     18  N   UNL     1      22.374   7.978  52.039  1.00  0.00    -0.306 N 
ATOM     19  C   UNL     1      21.541   7.996  53.156  1.00  0.00     0.116 A 
ATOM     20  C   UNL     1      22.434   9.259  51.655  1.00  0.00     0.204 A 
ATOM     21  C   UNL     1      21.158   9.272  53.377  1.00  0.00     0.056 A 
ATOM     22  N   UNL     1      21.753  10.051  52.447  1.00  0.00    -0.242 NA
ATOM     23  C   UNL     1      20.272   9.799  54.480  1.00  0.00     0.068 C 
ENDBRANCH  15  18
BRANCH  16  24
ATOM     24  C   UNL     1      22.894   5.340  47.911  1.00  0.00     0.416 C 
ATOM     25  F   UNL     1      21.825   6.011  47.439  1.00  0.00    -0.166 F 
ATOM     26  F   UNL     1      23.867   5.788  47.126  1.00  0.00    -0.166 F 
ATOM     27  F   UNL     1      22.587   4.050  47.666  1.00  0.00    -0.166 F 
ENDBRANCH  16  24
ENDBRANCH  10  12
ENDBRANCH   1   8
BRANCH   6  28
ATOM     28  N   UNL     1      29.147   2.679  55.390  1.00  0.00    -0.324 N 
ATOM     29  H   UNL     1      28.575   2.865  56.225  1.00  0.00     0.170 HD
BRANCH  28  30
ATOM     30  C   UNL     1      30.515   2.961  55.396  1.00  0.00     0.227 A 
ATOM     31  N   UNL     1      31.172   3.876  56.097  1.00  0.00    -0.221 NA
ATOM     32  N   UNL     1      31.104   2.166  54.467  1.00  0.00    -0.213 NA
ATOM     33  C   UNL     1      32.498   3.969  55.878  1.00  0.00     0.117 A 
ATOM     34  C   UNL     1      32.418   2.316  54.262  1.00  0.00     0.077 A 
ATOM     35  C   UNL     1      33.134   3.221  54.963  1.00  0.00     0.049 A 
BRANCH  34  36
ATOM     36  C   UNL     1      33.021   1.399  53.260  1.00  0.00     0.019 A 
ATOM     37  C   UNL     1      34.209   1.724  52.587  1.00  0.00     0.013 A 
ATOM     38  C   UNL     1      32.400   0.173  52.948  1.00  0.00     0.121 A 
ATOM     39  C   UNL     1      34.713   0.839  51.642  1.00  0.00     0.021 A 
ATOM     40  N   UNL     1      32.877  -0.680  52.032  1.00  0.00    -0.264 NA
ATOM     41  C   UNL     1      34.029  -0.356  51.422  1.00  0.00     0.111 A 
ENDBRANCH  34  36
ENDBRANCH  28  30
ENDBRANCH   6  28
TORSDOF 7
ENDMDL
MODEL 9
REMARK VINA RESULT:   -11.381      4.275     11.128
REMARK INTER + INTRA:         -14.669
REMARK INTER:                 -13.469
REMARK INTRA:                  -1.200
REMARK CONF_INDEPENDENT:        2.088
REMARK UNBOUND:                -1.200
REMARK SMILES Cc1cn(-c2cc(NC(=O)c3ccc(C)c(Nc4nccc(-c5cccnc5)n4)c3)cc(C(F)(F)F)c2)cn1
REMARK SMILES IDX 11 1 12 2 13 3 14 4 15 5 16 6 30 7 9 8 10 9 8 10 7 12 6 13
REMARK SMILES IDX 31 14 5 15 32 16 37 17 4 18 3 19 38 20 2 21 39 22 1 23 33 24
REMARK SMILES IDX 34 25 35 26 36 27 17 28 18 30 19 31 29 32 20 33 22 34 21 35
REMARK SMILES IDX 23 36 24 37 28 38 25 39 27 40 26 41
REMARK H PARENT 8 11 17 29
ROOT
ATOM      1  C   UNL     1      25.832   3.939  52.210  1.00  0.00     0.042 A 
ATOM      2  C   UNL     1      25.188   4.430  51.065  1.00  0.00     0.014 A 
ATOM      3  C   UNL     1      24.094   5.291  51.159  1.00  0.00     0.006 A 
ATOM      4  C   UNL     1      23.549   5.630  52.387  1.00  0.00    -0.027 A 
ATOM      5  C   UNL     1      22.351   6.564  52.474  1.00  0.00     0.046 C 
ATOM      6  C   UNL     1      24.121   5.063  53.525  1.00  0.00     0.045 A 
ATOM      7  C   UNL     1      25.234   4.220  53.411  1.00  0.00     0.040 A 
ENDROOT
BRANCH   1   8
ATOM      8  C   UNL     1      26.909   2.930  52.205  1.00  0.00     0.255 C 
ATOM      9  O   UNL     1      27.536   2.845  51.177  1.00  0.00    -0.269 OA
ATOM     10  N   UNL     1      27.235   2.407  53.397  1.00  0.00    -0.322 N 
ATOM     11  H   UNL     1      26.669   2.698  54.206  1.00  0.00     0.170 HD
BRANCH  10  12
ATOM     12  C   UNL     1      28.267   1.508  53.639  1.00  0.00     0.044 A 
ATOM     13  C   UNL     1      29.570   1.745  53.136  1.00  0.00     0.052 A 
ATOM     14  C   UNL     1      28.012   0.280  54.288  1.00  0.00     0.039 A 
ATOM     15  C   UNL     1      30.617   0.852  53.382  1.00  0.00     0.049 A 
ATOM     16  C   UNL     1      29.084  -0.618  54.557  1.00  0.00     0.060 A 
ATOM     17  C   UNL     1      30.361  -0.330  54.069  1.00  0.00     0.039 A 
BRANCH  15  18
ATOM     18  N   UNL     1      31.920   1.098  52.924  1.00  0.00    -0.306 N 
ATOM     19  C   UNL     1      32.560   0.597  51.792  1.00  0.00     0.116 A 
ATOM     20  C   UNL     1      32.867   1.810  53.547  1.00  0.00     0.204 A 
ATOM     21  C   UNL     1      33.837   1.037  51.800  1.00  0.00     0.056 A 
ATOM     22  N   UNL     1      34.000   1.821  52.889  1.00  0.00    -0.242 NA
ATOM     23  C   UNL     1      34.915   0.777  50.775  1.00  0.00     0.068 C 
ENDBRANCH  15  18
BRANCH  16  24
ATOM     24  C   UNL     1      28.797  -1.882  55.299  1.00  0.00     0.416 C 
ATOM     25  F   UNL     1      27.908  -2.702  54.704  1.00  0.00    -0.166 F 
ATOM     26  F   UNL     1      29.877  -2.651  55.367  1.00  0.00    -0.166 F 
ATOM     27  F   UNL     1      28.249  -1.653  56.510  1.00  0.00    -0.166 F 
ENDBRANCH  16  24
ENDBRANCH  10  12
ENDBRANCH   1   8
BRANCH   6  28
ATOM     28  N   UNL     1      23.694   5.515  54.781  1.00  0.00    -0.324 N 
ATOM     29  H   UNL     1      22.947   5.018  55.285  1.00  0.00     0.170 HD
BRANCH  28  30
ATOM     30  C   UNL     1      24.291   6.645  55.343  1.00  0.00     0.227 A 
ATOM     31  N   UNL     1      24.437   7.856  54.821  1.00  0.00    -0.221 NA
ATOM     32  N   UNL     1      24.802   6.284  56.548  1.00  0.00    -0.213 NA
ATOM     33  C   UNL     1      25.097   8.761  55.568  1.00  0.00     0.117 A 
ATOM     34  C   UNL     1      25.478   7.209  57.239  1.00  0.00     0.077 A 
ATOM     35  C   UNL     1      25.638   8.461  56.759  1.00  0.00     0.049 A 
BRANCH  34  36
ATOM     36  C   UNL     1      25.987   6.775  58.567  1.00  0.00     0.019 A 
ATOM     37  C   UNL     1      25.134   6.223  59.536  1.00  0.00     0.013 A 
ATOM     38  C   UNL     1      27.349   6.922  58.894  1.00  0.00     0.121 A 
ATOM     39  C   UNL     1      25.661   5.858  60.769  1.00  0.00     0.021 A 
ATOM     40  N   UNL     1      27.861   6.579  60.083  1.00  0.00    -0.264 NA
ATOM     41  C   UNL     1      27.028   6.030  60.982  1.00  0.00     0.111 A 
ENDBRANCH  34  36
ENDBRANCH  28  30
ENDBRANCH   6  28
TORSDOF 7
ENDMDL
MODEL 10
REMARK VINA RESULT:   -11.110      3.661     12.042
REMARK INTER + INTRA:         -14.427
REMARK INTER:                 -13.198
REMARK INTRA:                  -1.229
REMARK CONF_INDEPENDENT:        2.088
REMARK UNBOUND:                -1.229
REMARK SMILES Cc1cn(-c2cc(NC(=O)c3ccc(C)c(Nc4nccc(-c5cccnc5)n4)c3)cc(C(F)(F)F)c2)cn1
REMARK SMILES IDX 11 1 12 2 13 3 14 4 15 5 16 6 30 7 9 8 10 9 8 10 7 12 6 13
REMARK SMILES IDX 31 14 5 15 32 16 37 17 4 18 3 19 38 20 2 21 39 22 1 23 33 24
REMARK SMILES IDX 34 25 35 26 36 27 17 28 18 30 19 31 29 32 20 33 22 34 21 35
REMARK SMILES IDX 23 36 24 37 28 38 25 39 27 40 26 41
REMARK H PARENT 8 11 17 29
ROOT
ATOM      1  C   UNL     1      26.127   3.478  51.647  1.00  0.00     0.042 A 
ATOM      2  C   UNL     1      25.494   3.786  50.434  1.00  0.00     0.014 A 
ATOM      3  C   UNL     1      24.232   4.381  50.404  1.00  0.00     0.006 A 
ATOM      4  C   UNL     1      23.519   4.614  51.569  1.00  0.00    -0.027 A 
ATOM      5  C   UNL     1      22.140   5.256  51.520  1.00  0.00     0.046 C 
ATOM      6  C   UNL     1      24.099   4.214  52.772  1.00  0.00     0.045 A 
ATOM      7  C   UNL     1      25.377   3.642  52.783  1.00  0.00     0.040 A 
ENDROOT
BRANCH   1   8
ATOM      8  C   UNL     1      27.398   2.737  51.771  1.00  0.00     0.255 C 
ATOM      9  O   UNL     1      28.334   3.210  51.173  1.00  0.00    -0.269 OA
ATOM     10  N   UNL     1      27.439   1.785  52.715  1.00  0.00    -0.322 N 
ATOM     11  H   UNL     1      26.567   1.601  53.232  1.00  0.00     0.170 HD
BRANCH  10  12
ATOM     12  C   UNL     1      28.549   1.025  53.061  1.00  0.00     0.044 A 
ATOM     13  C   UNL     1      29.834   1.343  52.554  1.00  0.00     0.052 A 
ATOM     14  C   UNL     1      28.404  -0.151  53.827  1.00  0.00     0.039 A 
ATOM     15  C   UNL     1      30.959   0.591  52.904  1.00  0.00     0.049 A 
ATOM     16  C   UNL     1      29.554  -0.904  54.201  1.00  0.00     0.060 A 
ATOM     17  C   UNL     1      30.807  -0.538  53.703  1.00  0.00     0.039 A 
BRANCH  15  18
ATOM     18  N   UNL     1      32.241   0.922  52.442  1.00  0.00    -0.306 N 
ATOM     19  C   UNL     1      32.880   0.522  51.269  1.00  0.00     0.116 A 
ATOM     20  C   UNL     1      33.168   1.634  53.093  1.00  0.00     0.204 A 
ATOM     21  C   UNL     1      34.137   1.016  51.284  1.00  0.00     0.056 A 
ATOM     22  N   UNL     1      34.287   1.736  52.417  1.00  0.00    -0.242 NA
ATOM     23  C   UNL     1      35.205   0.869  50.227  1.00  0.00     0.068 C 
ENDBRANCH  15  18
BRANCH  16  24
ATOM     24  C   UNL     1      29.377  -2.111  55.063  1.00  0.00     0.416 C 
ATOM     25  F   UNL     1      28.754  -3.149  54.469  1.00  0.00    -0.166 F 
ATOM     26  F   UNL     1      30.550  -2.643  55.385  1.00  0.00    -0.166 F 
ATOM     27  F   UNL     1      28.610  -1.862  56.144  1.00  0.00    -0.166 F 
ENDBRANCH  16  24
ENDBRANCH  10  12
ENDBRANCH   1   8
BRANCH   6  28
ATOM     28  N   UNL     1      23.473   4.584  53.969  1.00  0.00    -0.324 N 
ATOM     29  H   UNL     1      22.850   3.924  54.455  1.00  0.00     0.170 HD
BRANCH  28  30
ATOM     30  C   UNL     1      23.701   5.856  54.498  1.00  0.00     0.227 A 
ATOM     31  N   UNL     1      24.682   6.264  55.292  1.00  0.00    -0.221 NA
ATOM     32  N   UNL     1      22.665   6.650  54.122  1.00  0.00    -0.213 NA
ATOM     33  C   UNL     1      24.640   7.547  55.697  1.00  0.00     0.117 A 
ATOM     34  C   UNL     1      22.650   7.909  54.575  1.00  0.00     0.077 A 
ATOM     35  C   UNL     1      23.636   8.376  55.371  1.00  0.00     0.049 A 
BRANCH  34  36
ATOM     36  C   UNL     1      21.516   8.746  54.107  1.00  0.00     0.019 A 
ATOM     37  C   UNL     1      20.189   8.452  54.460  1.00  0.00     0.013 A 
ATOM     38  C   UNL     1      21.744   9.860  53.274  1.00  0.00     0.121 A 
ATOM     39  C   UNL     1      19.166   9.256  53.972  1.00  0.00     0.021 A 
ATOM     40  N   UNL     1      20.762  10.633  52.794  1.00  0.00    -0.264 NA
ATOM     41  C   UNL     1      19.505  10.344  53.169  1.00  0.00     0.111 A 
ENDBRANCH  34  36
ENDBRANCH  28  30
ENDBRANCH   6  28
TORSDOF 7
ENDMDL
MODEL 11
REMARK VINA RESULT:   -11.034      4.664      8.308
REMARK INTER + INTRA:         -14.072
REMARK INTER:                 -13.122
REMARK INTRA:                  -0.949
REMARK CONF_INDEPENDENT:        2.088
REMARK UNBOUND:                -0.949
REMARK SMILES Cc1cn(-c2cc(NC(=O)c3ccc(C)c(Nc4nccc(-c5cccnc5)n4)c3)cc(C(F)(F)F)c2)cn1
REMARK SMILES IDX 11 1 12 2 13 3 14 4 15 5 16 6 30 7 9 8 10 9 8 10 7 12 6 13
REMARK SMILES IDX 31 14 5 15 32 16 37 17 4 18 3 19 38 20 2 21 39 22 1 23 33 24
REMARK SMILES IDX 34 25 35 26 36 27 17 28 18 30 19 31 29 32 20 33 22 34 21 35
REMARK SMILES IDX 23 36 24 37 28 38 25 39 27 40 26 41
REMARK H PARENT 8 11 17 29
ROOT
ATOM      1  C   UNL     1      34.370  -0.802  50.880  1.00  0.00     0.042 A 
ATOM      2  C   UNL     1      34.490  -2.065  50.283  1.00  0.00     0.014 A 
ATOM      3  C   UNL     1      35.495  -2.337  49.353  1.00  0.00     0.006 A 
ATOM      4  C   UNL     1      36.361  -1.346  48.920  1.00  0.00    -0.027 A 
ATOM      5  C   UNL     1      37.446  -1.655  47.900  1.00  0.00     0.046 C 
ATOM      6  C   UNL     1      36.180  -0.062  49.433  1.00  0.00     0.045 A 
ATOM      7  C   UNL     1      35.183   0.184  50.384  1.00  0.00     0.040 A 
ENDROOT
BRANCH   1   8
ATOM      8  C   UNL     1      33.268  -0.392  51.773  1.00  0.00     0.255 C 
ATOM      9  O   UNL     1      33.471   0.604  52.423  1.00  0.00    -0.269 OA
ATOM     10  N   UNL     1      32.091  -1.007  51.581  1.00  0.00    -0.322 N 
ATOM     11  H   UNL     1      32.066  -1.758  50.877  1.00  0.00     0.170 HD
BRANCH  10  12
ATOM     12  C   UNL     1      30.904  -0.723  52.244  1.00  0.00     0.044 A 
ATOM     13  C   UNL     1      30.093   0.369  51.848  1.00  0.00     0.052 A 
ATOM     14  C   UNL     1      30.540  -1.442  53.404  1.00  0.00     0.039 A 
ATOM     15  C   UNL     1      28.892   0.656  52.503  1.00  0.00     0.049 A 
ATOM     16  C   UNL     1      29.306  -1.162  54.056  1.00  0.00     0.060 A 
ATOM     17  C   UNL     1      28.521  -0.095  53.614  1.00  0.00     0.039 A 
BRANCH  15  18
ATOM     18  N   UNL     1      28.061   1.709  52.093  1.00  0.00    -0.306 N 
ATOM     19  C   UNL     1      27.015   2.319  52.782  1.00  0.00     0.116 A 
ATOM     20  C   UNL     1      28.045   2.295  50.889  1.00  0.00     0.204 A 
ATOM     21  C   UNL     1      26.442   3.228  51.963  1.00  0.00     0.056 A 
ATOM     22  N   UNL     1      27.122   3.220  50.795  1.00  0.00    -0.242 NA
ATOM     23  C   UNL     1      25.286   4.151  52.263  1.00  0.00     0.068 C 
ENDBRANCH  15  18
BRANCH  16  24
ATOM     24  C   UNL     1      28.917  -1.979  55.245  1.00  0.00     0.416 C 
ATOM     25  F   UNL     1      28.042  -2.973  54.992  1.00  0.00    -0.166 F 
ATOM     26  F   UNL     1      29.959  -2.646  55.727  1.00  0.00    -0.166 F 
ATOM     27  F   UNL     1      28.293  -1.245  56.190  1.00  0.00    -0.166 F 
ENDBRANCH  16  24
ENDBRANCH  10  12
ENDBRANCH   1   8
BRANCH   6  28
ATOM     28  N   UNL     1      37.140   0.915  49.137  1.00  0.00    -0.324 N 
ATOM     29  H   UNL     1      36.848   1.857  48.842  1.00  0.00     0.170 HD
BRANCH  28  30
ATOM     30  C   UNL     1      38.496   0.600  49.244  1.00  0.00     0.227 A 
ATOM     31  N   UNL     1      39.139   0.020  50.250  1.00  0.00    -0.221 NA
ATOM     32  N   UNL     1      39.118   1.071  48.133  1.00  0.00    -0.213 NA
ATOM     33  C   UNL     1      40.470  -0.129  50.113  1.00  0.00     0.117 A 
ATOM     34  C   UNL     1      40.446   0.930  48.056  1.00  0.00     0.077 A 
ATOM     35  C   UNL     1      41.143   0.330  49.046  1.00  0.00     0.049 A 
BRANCH  34  36
ATOM     36  C   UNL     1      41.074   1.430  46.806  1.00  0.00     0.019 A 
ATOM     37  C   UNL     1      42.064   0.694  46.134  1.00  0.00     0.013 A 
ATOM     38  C   UNL     1      40.699   2.676  46.265  1.00  0.00     0.121 A 
ATOM     39  C   UNL     1      42.634   1.223  44.983  1.00  0.00     0.021 A 
ATOM     40  N   UNL     1      41.251   3.194  45.161  1.00  0.00    -0.264 NA
ATOM     41  C   UNL     1      42.176   2.458  44.524  1.00  0.00     0.111 A 
ENDBRANCH  34  36
ENDBRANCH  28  30
ENDBRANCH   6  28
TORSDOF 7
ENDMDL
MODEL 12
REMARK VINA RESULT:   -10.992      3.808     11.746
REMARK INTER + INTRA:         -14.187
REMARK INTER:                 -13.080
REMARK INTRA:                  -1.108
REMARK CONF_INDEPENDENT:        2.088
REMARK UNBOUND:                -1.108
REMARK SMILES Cc1cn(-c2cc(NC(=O)c3ccc(C)c(Nc4nccc(-c5cccnc5)n4)c3)cc(C(F)(F)F)c2)cn1
REMARK SMILES IDX 11 1 12 2 13 3 14 4 15 5 16 6 30 7 9 8 10 9 8 10 7 12 6 13
REMARK SMILES IDX 31 14 5 15 32 16 37 17 4 18 3 19 38 20 2 21 39 22 1 23 33 24
REMARK SMILES IDX 34 25 35 26 36 27 17 28 18 30 19 31 29 32 20 33 22 34 21 35
REMARK SMILES IDX 23 36 24 37 28 38 25 39 27 40 26 41
REMARK H PARENT 8 11 17 29
ROOT
ATOM      1  C   UNL     1      25.672   3.529  51.837  1.00  0.00     0.042 A 
ATOM      2  C   UNL     1      24.815   3.402  50.733  1.00  0.00     0.014 A 
ATOM      3  C   UNL     1      23.489   3.832  50.789  1.00  0.00     0.006 A 
ATOM      4  C   UNL     1      22.942   4.324  51.964  1.00  0.00    -0.027 A 
ATOM      5  C   UNL     1      21.491   4.782  52.013  1.00  0.00     0.046 C 
ATOM      6  C   UNL     1      23.759   4.355  53.093  1.00  0.00     0.045 A 
ATOM      7  C   UNL     1      25.095   3.943  53.009  1.00  0.00     0.040 A 
ENDROOT
BRANCH   1   8
ATOM      8  C   UNL     1      27.044   2.988  51.906  1.00  0.00     0.255 C 
ATOM      9  O   UNL     1      27.600   2.848  50.845  1.00  0.00    -0.269 OA
ATOM     10  N   UNL     1      27.604   2.952  53.124  1.00  0.00    -0.322 N 
ATOM     11  H   UNL     1      27.016   3.239  53.919  1.00  0.00     0.170 HD
BRANCH  10  12
ATOM     12  C   UNL     1      28.907   2.563  53.412  1.00  0.00     0.044 A 
ATOM     13  C   UNL     1      29.548   1.552  52.654  1.00  0.00     0.052 A 
ATOM     14  C   UNL     1      29.578   3.080  54.542  1.00  0.00     0.039 A 
ATOM     15  C   UNL     1      30.861   1.161  52.929  1.00  0.00     0.049 A 
ATOM     16  C   UNL     1      30.923   2.696  54.807  1.00  0.00     0.060 A 
ATOM     17  C   UNL     1      31.528   1.717  54.015  1.00  0.00     0.039 A 
BRANCH  15  18
ATOM     18  N   UNL     1      31.519   0.191  52.158  1.00  0.00    -0.306 N 
ATOM     19  C   UNL     1      32.853   0.148  51.756  1.00  0.00     0.116 A 
ATOM     20  C   UNL     1      30.963  -0.870  51.560  1.00  0.00     0.204 A 
ATOM     21  C   UNL     1      33.018  -0.926  50.954  1.00  0.00     0.056 A 
ATOM     22  N   UNL     1      31.832  -1.568  50.870  1.00  0.00    -0.242 NA
ATOM     23  C   UNL     1      34.287  -1.403  50.290  1.00  0.00     0.068 C 
ENDBRANCH  15  18
BRANCH  16  24
ATOM     24  C   UNL     1      31.630   3.304  55.975  1.00  0.00     0.416 C 
ATOM     25  F   UNL     1      31.027   4.387  56.505  1.00  0.00    -0.166 F 
ATOM     26  F   UNL     1      31.652   2.469  57.007  1.00  0.00    -0.166 F 
ATOM     27  F   UNL     1      32.859   3.757  55.652  1.00  0.00    -0.166 F 
ENDBRANCH  16  24
ENDBRANCH  10  12
ENDBRANCH   1   8
BRANCH   6  28
ATOM     28  N   UNL     1      23.281   4.996  54.244  1.00  0.00    -0.324 N 
ATOM     29  H   UNL     1      22.313   4.842  54.560  1.00  0.00     0.170 HD
BRANCH  28  30
ATOM     30  C   UNL     1      24.128   5.845  54.959  1.00  0.00     0.227 A 
ATOM     31  N   UNL     1      25.394   6.158  54.713  1.00  0.00    -0.221 NA
ATOM     32  N   UNL     1      23.452   6.274  56.055  1.00  0.00    -0.213 NA
ATOM     33  C   UNL     1      25.998   6.976  55.596  1.00  0.00     0.117 A 
ATOM     34  C   UNL     1      24.104   7.058  56.921  1.00  0.00     0.077 A 
ATOM     35  C   UNL     1      25.388   7.419  56.706  1.00  0.00     0.049 A 
BRANCH  34  36
ATOM     36  C   UNL     1      23.310   7.529  58.086  1.00  0.00     0.019 A 
ATOM     37  C   UNL     1      23.888   7.680  59.357  1.00  0.00     0.013 A 
ATOM     38  C   UNL     1      21.940   7.823  57.946  1.00  0.00     0.121 A 
ATOM     39  C   UNL     1      23.091   8.099  60.414  1.00  0.00     0.021 A 
ATOM     40  N   UNL     1      21.165   8.219  58.963  1.00  0.00    -0.264 NA
ATOM     41  C   UNL     1      21.749   8.380  60.162  1.00  0.00     0.111 A 
ENDBRANCH  34  36
ENDBRANCH  28  30
ENDBRANCH   6  28
TORSDOF 7
ENDMDL
MODEL 13
REMARK VINA RESULT:   -10.955      1.808      2.716
REMARK INTER + INTRA:         -14.185
REMARK INTER:                 -13.043
REMARK INTRA:                  -1.142
REMARK CONF_INDEPENDENT:        2.088
REMARK UNBOUND:                -1.142
REMARK SMILES Cc1cn(-c2cc(NC(=O)c3ccc(C)c(Nc4nccc(-c5cccnc5)n4)c3)cc(C(F)(F)F)c2)cn1
REMARK SMILES IDX 11 1 12 2 13 3 14 4 15 5 16 6 30 7 9 8 10 9 8 10 7 12 6 13
REMARK SMILES IDX 31 14 5 15 32 16 37 17 4 18 3 19 38 20 2 21 39 22 1 23 33 24
REMARK SMILES IDX 34 25 35 26 36 27 17 28 18 30 19 31 29 32 20 33 22 34 21 35
REMARK SMILES IDX 23 36 24 37 28 38 25 39 27 40 26 41
REMARK H PARENT 8 11 17 29
ROOT
ATOM      1  C   UNL     1      26.915   2.516  52.506  1.00  0.00     0.042 A 
ATOM      2  C   UNL     1      27.039   1.422  51.638  1.00  0.00     0.014 A 
ATOM      3  C   UNL     1      27.970   0.409  51.873  1.00  0.00     0.006 A 
ATOM      4  C   UNL     1      28.864   0.487  52.929  1.00  0.00    -0.027 A 
ATOM      5  C   UNL     1      29.879  -0.622  53.169  1.00  0.00     0.046 C 
ATOM      6  C   UNL     1      28.815   1.623  53.735  1.00  0.00     0.045 A 
ATOM      7  C   UNL     1      27.857   2.616  53.497  1.00  0.00     0.040 A 
ENDROOT
BRANCH   1   8
ATOM      8  C   UNL     1      26.051   3.689  52.267  1.00  0.00     0.255 C 
ATOM      9  O   UNL     1      25.838   3.948  51.107  1.00  0.00    -0.269 OA
ATOM     10  N   UNL     1      25.404   4.176  53.336  1.00  0.00    -0.322 N 
ATOM     11  H   UNL     1      25.610   3.739  54.246  1.00  0.00     0.170 HD
BRANCH  10  12
ATOM     12  C   UNL     1      24.481   5.215  53.329  1.00  0.00     0.044 A 
ATOM     13  C   UNL     1      23.766   5.560  54.503  1.00  0.00     0.052 A 
ATOM     14  C   UNL     1      24.148   5.870  52.124  1.00  0.00     0.039 A 
ATOM     15  C   UNL     1      22.844   6.610  54.508  1.00  0.00     0.049 A 
ATOM     16  C   UNL     1      23.224   6.954  52.136  1.00  0.00     0.060 A 
ATOM     17  C   UNL     1      22.564   7.282  53.322  1.00  0.00     0.039 A 
BRANCH  15  18
ATOM     18  N   UNL     1      22.161   6.987  55.674  1.00  0.00    -0.306 N 
ATOM     19  C   UNL     1      22.590   6.924  56.999  1.00  0.00     0.116 A 
ATOM     20  C   UNL     1      20.894   7.409  55.760  1.00  0.00     0.204 A 
ATOM     21  C   UNL     1      21.568   7.313  57.792  1.00  0.00     0.056 A 
ATOM     22  N   UNL     1      20.527   7.643  56.997  1.00  0.00    -0.242 NA
ATOM     23  C   UNL     1      21.553   7.429  59.297  1.00  0.00     0.068 C 
ENDBRANCH  15  18
BRANCH  16  24
ATOM     24  C   UNL     1      22.935   7.670  50.857  1.00  0.00     0.416 C 
ATOM     25  F   UNL     1      24.022   8.008  50.135  1.00  0.00    -0.166 F 
ATOM     26  F   UNL     1      22.276   6.887  50.011  1.00  0.00    -0.166 F 
ATOM     27  F   UNL     1      22.314   8.851  51.058  1.00  0.00    -0.166 F 
ENDBRANCH  16  24
ENDBRANCH  10  12
ENDBRANCH   1   8
BRANCH   6  28
ATOM     28  N   UNL     1      29.595   1.649  54.898  1.00  0.00    -0.324 N 
ATOM     29  H   UNL     1      29.208   1.310  55.791  1.00  0.00     0.170 HD
BRANCH  28  30
ATOM     30  C   UNL     1      30.902   2.138  54.838  1.00  0.00     0.227 A 
ATOM     31  N   UNL     1      31.461   3.108  55.550  1.00  0.00    -0.221 NA
ATOM     32  N   UNL     1      31.538   1.488  53.830  1.00  0.00    -0.213 NA
ATOM     33  C   UNL     1      32.739   3.413  55.258  1.00  0.00     0.117 A 
ATOM     34  C   UNL     1      32.797   1.848  53.556  1.00  0.00     0.077 A 
ATOM     35  C   UNL     1      33.416   2.818  54.263  1.00  0.00     0.049 A 
BRANCH  34  36
ATOM     36  C   UNL     1      33.462   1.084  52.468  1.00  0.00     0.019 A 
ATOM     37  C   UNL     1      33.225  -0.288  52.282  1.00  0.00     0.013 A 
ATOM     38  C   UNL     1      34.366   1.721  51.596  1.00  0.00     0.121 A 
ATOM     39  C   UNL     1      33.894  -0.956  51.264  1.00  0.00     0.021 A 
ATOM     40  N   UNL     1      35.019   1.080  50.618  1.00  0.00    -0.264 NA
ATOM     41  C   UNL     1      34.755  -0.226  50.447  1.00  0.00     0.111 A 
ENDBRANCH  34  36
ENDBRANCH  28  30
ENDBRANCH   6  28
TORSDOF 7
ENDMDL
MODEL 14
REMARK VINA RESULT:   -10.920      3.581     12.081
REMARK INTER + INTRA:         -14.334
REMARK INTER:                 -13.008
REMARK INTRA:                  -1.326
REMARK CONF_INDEPENDENT:        2.088
REMARK UNBOUND:                -1.326
REMARK SMILES Cc1cn(-c2cc(NC(=O)c3ccc(C)c(Nc4nccc(-c5cccnc5)n4)c3)cc(C(F)(F)F)c2)cn1
REMARK SMILES IDX 11 1 12 2 13 3 14 4 15 5 16 6 30 7 9 8 10 9 8 10 7 12 6 13
REMARK SMILES IDX 31 14 5 15 32 16 37 17 4 18 3 19 38 20 2 21 39 22 1 23 33 24
REMARK SMILES IDX 34 25 35 26 36 27 17 28 18 30 19 31 29 32 20 33 22 34 21 35
REMARK SMILES IDX 23 36 24 37 28 38 25 39 27 40 26 41
REMARK H PARENT 8 11 17 29
ROOT
ATOM      1  C   UNL     1      25.623   3.663  51.909  1.00  0.00     0.042 A 
ATOM      2  C   UNL     1      24.874   3.832  50.736  1.00  0.00     0.014 A 
ATOM      3  C   UNL     1      23.546   4.259  50.776  1.00  0.00     0.006 A 
ATOM      4  C   UNL     1      22.890   4.454  51.981  1.00  0.00    -0.027 A 
ATOM      5  C   UNL     1      21.439   4.913  52.010  1.00  0.00     0.046 C 
ATOM      6  C   UNL     1      23.598   4.188  53.152  1.00  0.00     0.045 A 
ATOM      7  C   UNL     1      24.938   3.784  53.090  1.00  0.00     0.040 A 
ENDROOT
BRANCH   1   8
ATOM      8  C   UNL     1      26.985   3.096  51.967  1.00  0.00     0.255 C 
ATOM      9  O   UNL     1      27.524   2.935  50.899  1.00  0.00    -0.269 OA
ATOM     10  N   UNL     1      27.561   3.061  53.178  1.00  0.00    -0.322 N 
ATOM     11  H   UNL     1      26.989   3.368  53.977  1.00  0.00     0.170 HD
BRANCH  10  12
ATOM     12  C   UNL     1      28.859   2.649  53.452  1.00  0.00     0.044 A 
ATOM     13  C   UNL     1      29.488   1.653  52.664  1.00  0.00     0.052 A 
ATOM     14  C   UNL     1      29.537   3.125  54.596  1.00  0.00     0.039 A 
ATOM     15  C   UNL     1      30.797   1.239  52.926  1.00  0.00     0.049 A 
ATOM     16  C   UNL     1      30.878   2.719  54.848  1.00  0.00     0.060 A 
ATOM     17  C   UNL     1      31.471   1.757  54.028  1.00  0.00     0.039 A 
BRANCH  15  18
ATOM     18  N   UNL     1      31.443   0.285  52.127  1.00  0.00    -0.306 N 
ATOM     19  C   UNL     1      32.809   0.070  51.951  1.00  0.00     0.116 A 
ATOM     20  C   UNL     1      30.865  -0.574  51.279  1.00  0.00     0.204 A 
ATOM     21  C   UNL     1      32.968  -0.898  51.022  1.00  0.00     0.056 A 
ATOM     22  N   UNL     1      31.739  -1.311  50.638  1.00  0.00    -0.242 NA
ATOM     23  C   UNL     1      34.258  -1.490  50.509  1.00  0.00     0.068 C 
ENDBRANCH  15  18
BRANCH  16  24
ATOM     24  C   UNL     1      31.593   3.285  56.032  1.00  0.00     0.416 C 
ATOM     25  F   UNL     1      31.650   2.472  57.105  1.00  0.00    -0.166 F 
ATOM     26  F   UNL     1      32.879   3.479  55.765  1.00  0.00    -0.166 F 
ATOM     27  F   UNL     1      30.993   4.395  56.511  1.00  0.00    -0.166 F 
ENDBRANCH  16  24
ENDBRANCH  10  12
ENDBRANCH   1   8
BRANCH   6  28
ATOM     28  N   UNL     1      23.013   4.531  54.378  1.00  0.00    -0.324 N 
ATOM     29  H   UNL     1      22.442   3.845  54.891  1.00  0.00     0.170 HD
BRANCH  28  30
ATOM     30  C   UNL     1      23.211   5.812  54.898  1.00  0.00     0.227 A 
ATOM     31  N   UNL     1      24.119   6.222  55.775  1.00  0.00    -0.221 NA
ATOM     32  N   UNL     1      22.232   6.613  54.406  1.00  0.00    -0.213 NA
ATOM     33  C   UNL     1      24.061   7.516  56.145  1.00  0.00     0.117 A 
ATOM     34  C   UNL     1      22.196   7.882  54.828  1.00  0.00     0.077 A 
ATOM     35  C   UNL     1      23.108   8.352  55.705  1.00  0.00     0.049 A 
BRANCH  34  36
ATOM     36  C   UNL     1      21.127   8.726  54.233  1.00  0.00     0.019 A 
ATOM     37  C   UNL     1      19.776   8.348  54.286  1.00  0.00     0.013 A 
ATOM     38  C   UNL     1      21.448   9.933  53.582  1.00  0.00     0.121 A 
ATOM     39  C   UNL     1      18.823   9.164  53.691  1.00  0.00     0.021 A 
ATOM     40  N   UNL     1      20.534  10.720  52.999  1.00  0.00    -0.264 NA
ATOM     41  C   UNL     1      19.247  10.347  53.087  1.00  0.00     0.111 A 
ENDBRANCH  34  36
ENDBRANCH  28  30
ENDBRANCH   6  28
TORSDOF 7
ENDMDL
MODEL 15
REMARK VINA RESULT:   -10.890      8.411     15.253
REMARK INTER + INTRA:         -14.290
REMARK INTER:                 -12.978
REMARK INTRA:                  -1.312
REMARK CONF_INDEPENDENT:        2.088
REMARK UNBOUND:                -1.312
REMARK SMILES Cc1cn(-c2cc(NC(=O)c3ccc(C)c(Nc4nccc(-c5cccnc5)n4)c3)cc(C(F)(F)F)c2)cn1
REMARK SMILES IDX 11 1 12 2 13 3 14 4 15 5 16 6 30 7 9 8 10 9 8 10 7 12 6 13
REMARK SMILES IDX 31 14 5 15 32 16 37 17 4 18 3 19 38 20 2 21 39 22 1 23 33 24
REMARK SMILES IDX 34 25 35 26 36 27 17 28 18 30 19 31 29 32 20 33 22 34 21 35
REMARK SMILES IDX 23 36 24 37 28 38 25 39 27 40 26 41
REMARK H PARENT 8 11 17 29
ROOT
ATOM      1  C   UNL     1      35.981  -1.648  49.252  1.00  0.00     0.042 A 
ATOM      2  C   UNL     1      35.205  -2.812  49.137  1.00  0.00     0.014 A 
ATOM      3  C   UNL     1      33.832  -2.797  49.386  1.00  0.00     0.006 A 
ATOM      4  C   UNL     1      33.196  -1.652  49.837  1.00  0.00    -0.027 A 
ATOM      5  C   UNL     1      31.699  -1.653  50.112  1.00  0.00     0.046 C 
ATOM      6  C   UNL     1      33.980  -0.520  50.052  1.00  0.00     0.045 A 
ATOM      7  C   UNL     1      35.352  -0.548  49.773  1.00  0.00     0.040 A 
ENDROOT
BRANCH   1   8
ATOM      8  C   UNL     1      37.452  -1.600  49.132  1.00  0.00     0.255 C 
ATOM      9  O   UNL     1      38.034  -1.138  50.083  1.00  0.00    -0.269 OA
ATOM     10  N   UNL     1      37.985  -2.291  48.114  1.00  0.00    -0.322 N 
ATOM     11  H   UNL     1      37.330  -2.743  47.461  1.00  0.00     0.170 HD
BRANCH  10  12
ATOM     12  C   UNL     1      39.341  -2.453  47.859  1.00  0.00     0.044 A 
ATOM     13  C   UNL     1      39.907  -2.028  46.632  1.00  0.00     0.052 A 
ATOM     14  C   UNL     1      40.164  -3.153  48.769  1.00  0.00     0.039 A 
ATOM     15  C   UNL     1      41.272  -2.177  46.371  1.00  0.00     0.049 A 
ATOM     16  C   UNL     1      41.558  -3.284  48.511  1.00  0.00     0.060 A 
ATOM     17  C   UNL     1      42.080  -2.824  47.300  1.00  0.00     0.039 A 
BRANCH  15  18
ATOM     18  N   UNL     1      41.849  -1.722  45.175  1.00  0.00    -0.306 N 
ATOM     19  C   UNL     1      42.150  -0.417  44.790  1.00  0.00     0.116 A 
ATOM     20  C   UNL     1      42.150  -2.459  44.100  1.00  0.00     0.204 A 
ATOM     21  C   UNL     1      42.614  -0.448  43.522  1.00  0.00     0.056 A 
ATOM     22  N   UNL     1      42.637  -1.738  43.119  1.00  0.00    -0.242 NA
ATOM     23  C   UNL     1      43.088   0.710  42.677  1.00  0.00     0.068 C 
ENDBRANCH  15  18
BRANCH  16  24
ATOM     24  C   UNL     1      42.416  -3.978  49.519  1.00  0.00     0.416 C 
ATOM     25  F   UNL     1      42.519  -3.350  50.707  1.00  0.00    -0.166 F 
ATOM     26  F   UNL     1      41.892  -5.146  49.869  1.00  0.00    -0.166 F 
ATOM     27  F   UNL     1      43.698  -4.089  49.112  1.00  0.00    -0.166 F 
ENDBRANCH  16  24
ENDBRANCH  10  12
ENDBRANCH   1   8
BRANCH   6  28
ATOM     28  N   UNL     1      33.337   0.689  50.350  1.00  0.00    -0.324 N 
ATOM     29  H   UNL     1      32.992   1.294  49.591  1.00  0.00     0.170 HD
BRANCH  28  30
ATOM     30  C   UNL     1      33.169   1.067  51.683  1.00  0.00     0.227 A 
ATOM     31  N   UNL     1      33.877   1.931  52.399  1.00  0.00    -0.221 NA
ATOM     32  N   UNL     1      32.159   0.320  52.199  1.00  0.00    -0.213 NA
ATOM     33  C   UNL     1      33.525   2.079  53.691  1.00  0.00     0.117 A 
ATOM     34  C   UNL     1      31.867   0.479  53.495  1.00  0.00     0.077 A 
ATOM     35  C   UNL     1      32.547   1.359  54.261  1.00  0.00     0.049 A 
BRANCH  34  36
ATOM     36  C   UNL     1      30.732  -0.336  54.002  1.00  0.00     0.019 A 
ATOM     37  C   UNL     1      29.621   0.257  54.623  1.00  0.00     0.013 A 
ATOM     38  C   UNL     1      30.750  -1.739  53.884  1.00  0.00     0.121 A 
ATOM     39  C   UNL     1      28.601  -0.556  55.100  1.00  0.00     0.021 A 
ATOM     40  N   UNL     1      29.773  -2.529  54.350  1.00  0.00    -0.264 NA
ATOM     41  C   UNL     1      28.711  -1.934  54.916  1.00  0.00     0.111 A 
ENDBRANCH  34  36
ENDBRANCH  28  30
ENDBRANCH   6  28
TORSDOF 7
ENDMDL
MODEL 16
REMARK VINA RESULT:   -10.818      4.628     13.482
REMARK INTER + INTRA:         -14.238
REMARK INTER:                 -12.906
REMARK INTRA:                  -1.332
REMARK CONF_INDEPENDENT:        2.088
REMARK UNBOUND:                -1.332
REMARK SMILES Cc1cn(-c2cc(NC(=O)c3ccc(C)c(Nc4nccc(-c5cccnc5)n4)c3)cc(C(F)(F)F)c2)cn1
REMARK SMILES IDX 11 1 12 2 13 3 14 4 15 5 16 6 30 7 9 8 10 9 8 10 7 12 6 13
REMARK SMILES IDX 31 14 5 15 32 16 37 17 4 18 3 19 38 20 2 21 39 22 1 23 33 24
REMARK SMILES IDX 34 25 35 26 36 27 17 28 18 30 19 31 29 32 20 33 22 34 21 35
REMARK SMILES IDX 23 36 24 37 28 38 25 39 27 40 26 41
REMARK H PARENT 8 11 17 29
ROOT
ATOM      1  C   UNL     1      21.143   7.316  54.260  1.00  0.00     0.042 A 
ATOM      2  C   UNL     1      21.052   7.515  55.646  1.00  0.00     0.014 A 
ATOM      3  C   UNL     1      20.338   8.587  56.181  1.00  0.00     0.006 A 
ATOM      4  C   UNL     1      19.760   9.545  55.364  1.00  0.00    -0.027 A 
ATOM      5  C   UNL     1      18.989  10.714  55.961  1.00  0.00     0.046 C 
ATOM      6  C   UNL     1      19.934   9.410  53.987  1.00  0.00     0.045 A 
ATOM      7  C   UNL     1      20.634   8.313  53.469  1.00  0.00     0.040 A 
ENDROOT
BRANCH   1   8
ATOM      8  C   UNL     1      21.979   6.288  53.608  1.00  0.00     0.255 C 
ATOM      9  O   UNL     1      21.898   5.180  54.080  1.00  0.00    -0.269 OA
ATOM     10  N   UNL     1      22.527   6.630  52.433  1.00  0.00    -0.322 N 
ATOM     11  H   UNL     1      22.380   7.597  52.112  1.00  0.00     0.170 HD
BRANCH  10  12
ATOM     12  C   UNL     1      23.277   5.798  51.610  1.00  0.00     0.044 A 
ATOM     13  C   UNL     1      24.373   5.063  52.124  1.00  0.00     0.052 A 
ATOM     14  C   UNL     1      23.038   5.761  50.219  1.00  0.00     0.039 A 
ATOM     15  C   UNL     1      25.127   4.216  51.306  1.00  0.00     0.049 A 
ATOM     16  C   UNL     1      23.793   4.881  49.391  1.00  0.00     0.060 A 
ATOM     17  C   UNL     1      24.846   4.150  49.945  1.00  0.00     0.039 A 
BRANCH  15  18
ATOM     18  N   UNL     1      26.188   3.452  51.814  1.00  0.00    -0.306 N 
ATOM     19  C   UNL     1      26.545   3.222  53.142  1.00  0.00     0.116 A 
ATOM     20  C   UNL     1      27.150   2.847  51.107  1.00  0.00     0.204 A 
ATOM     21  C   UNL     1      27.685   2.497  53.153  1.00  0.00     0.056 A 
ATOM     22  N   UNL     1      28.029   2.245  51.871  1.00  0.00    -0.242 NA
ATOM     23  C   UNL     1      28.449   1.986  54.350  1.00  0.00     0.068 C 
ENDBRANCH  15  18
BRANCH  16  24
ATOM     24  C   UNL     1      23.478   4.816  47.932  1.00  0.00     0.416 C 
ATOM     25  F   UNL     1      24.327   5.497  47.136  1.00  0.00    -0.166 F 
ATOM     26  F   UNL     1      23.603   3.577  47.471  1.00  0.00    -0.166 F 
ATOM     27  F   UNL     1      22.276   5.355  47.642  1.00  0.00    -0.166 F 
ENDBRANCH  16  24
ENDBRANCH  10  12
ENDBRANCH   1   8
BRANCH   6  28
ATOM     28  N   UNL     1      19.226  10.269  53.138  1.00  0.00    -0.324 N 
ATOM     29  H   UNL     1      19.725  10.832  52.434  1.00  0.00     0.170 HD
BRANCH  28  30
ATOM     30  C   UNL     1      17.837  10.358  53.252  1.00  0.00     0.227 A 
ATOM     31  N   UNL     1      17.072  11.441  53.289  1.00  0.00    -0.221 NA
ATOM     32  N   UNL     1      17.356   9.097  53.407  1.00  0.00    -0.213 NA
ATOM     33  C   UNL     1      15.750  11.244  53.452  1.00  0.00     0.117 A 
ATOM     34  C   UNL     1      16.039   8.954  53.598  1.00  0.00     0.077 A 
ATOM     35  C   UNL     1      15.217  10.024  53.625  1.00  0.00     0.049 A 
BRANCH  34  36
ATOM     36  C   UNL     1      15.558   7.554  53.727  1.00  0.00     0.019 A 
ATOM     37  C   UNL     1      14.768   7.145  54.813  1.00  0.00     0.013 A 
ATOM     38  C   UNL     1      15.900   6.588  52.760  1.00  0.00     0.121 A 
ATOM     39  C   UNL     1      14.368   5.817  54.895  1.00  0.00     0.021 A 
ATOM     40  N   UNL     1      15.524   5.305  52.838  1.00  0.00    -0.264 NA
ATOM     41  C   UNL     1      14.747   4.947  53.873  1.00  0.00     0.111 A 
ENDBRANCH  34  36
ENDBRANCH  28  30
ENDBRANCH   6  28
TORSDOF 7
ENDMDL
MODEL 17
REMARK VINA RESULT:   -10.588      8.255     14.939
REMARK INTER + INTRA:         -14.035
REMARK INTER:                 -12.676
REMARK INTRA:                  -1.359
REMARK CONF_INDEPENDENT:        2.088
REMARK UNBOUND:                -1.359
REMARK SMILES Cc1cn(-c2cc(NC(=O)c3ccc(C)c(Nc4nccc(-c5cccnc5)n4)c3)cc(C(F)(F)F)c2)cn1
REMARK SMILES IDX 11 1 12 2 13 3 14 4 15 5 16 6 30 7 9 8 10 9 8 10 7 12 6 13
REMARK SMILES IDX 31 14 5 15 32 16 37 17 4 18 3 19 38 20 2 21 39 22 1 23 33 24
REMARK SMILES IDX 34 25 35 26 36 27 17 28 18 30 19 31 29 32 20 33 22 34 21 35
REMARK SMILES IDX 23 36 24 37 28 38 25 39 27 40 26 41
REMARK H PARENT 8 11 17 29
ROOT
ATOM      1  C   UNL     1      36.151  -1.561  49.505  1.00  0.00     0.042 A 
ATOM      2  C   UNL     1      35.476  -2.770  49.281  1.00  0.00     0.014 A 
ATOM      3  C   UNL     1      34.087  -2.858  49.386  1.00  0.00     0.006 A 
ATOM      4  C   UNL     1      33.328  -1.774  49.796  1.00  0.00    -0.027 A 
ATOM      5  C   UNL     1      31.814  -1.886  49.913  1.00  0.00     0.046 C 
ATOM      6  C   UNL     1      34.003  -0.598  50.120  1.00  0.00     0.045 A 
ATOM      7  C   UNL     1      35.395  -0.523  49.984  1.00  0.00     0.040 A 
ENDROOT
BRANCH   1   8
ATOM      8  C   UNL     1      37.619  -1.408  49.540  1.00  0.00     0.255 C 
ATOM      9  O   UNL     1      38.031  -0.529  50.257  1.00  0.00    -0.269 OA
ATOM     10  N   UNL     1      38.330  -2.400  48.985  1.00  0.00    -0.322 N 
ATOM     11  H   UNL     1      37.801  -3.153  48.523  1.00  0.00     0.170 HD
BRANCH  10  12
ATOM     12  C   UNL     1      39.716  -2.506  48.978  1.00  0.00     0.044 A 
ATOM     13  C   UNL     1      40.451  -2.508  50.189  1.00  0.00     0.052 A 
ATOM     14  C   UNL     1      40.430  -2.492  47.760  1.00  0.00     0.039 A 
ATOM     15  C   UNL     1      41.844  -2.623  50.192  1.00  0.00     0.049 A 
ATOM     16  C   UNL     1      41.847  -2.632  47.766  1.00  0.00     0.060 A 
ATOM     17  C   UNL     1      42.531  -2.661  48.983  1.00  0.00     0.039 A 
BRANCH  15  18
ATOM     18  N   UNL     1      42.578  -2.668  51.387  1.00  0.00    -0.306 N 
ATOM     19  C   UNL     1      42.584  -3.651  52.375  1.00  0.00     0.116 A 
ATOM     20  C   UNL     1      43.373  -1.709  51.876  1.00  0.00     0.204 A 
ATOM     21  C   UNL     1      43.377  -3.231  53.385  1.00  0.00     0.056 A 
ATOM     22  N   UNL     1      43.886  -2.028  53.039  1.00  0.00    -0.242 NA
ATOM     23  C   UNL     1      43.713  -3.955  54.665  1.00  0.00     0.068 C 
ENDBRANCH  15  18
BRANCH  16  24
ATOM     24  C   UNL     1      42.573  -2.675  46.460  1.00  0.00     0.416 C 
ATOM     25  F   UNL     1      43.799  -2.115  46.471  1.00  0.00    -0.166 F 
ATOM     26  F   UNL     1      42.846  -3.926  46.107  1.00  0.00    -0.166 F 
ATOM     27  F   UNL     1      41.926  -1.995  45.491  1.00  0.00    -0.166 F 
ENDBRANCH  16  24
ENDBRANCH  10  12
ENDBRANCH   1   8
BRANCH   6  28
ATOM     28  N   UNL     1      33.248   0.554  50.379  1.00  0.00    -0.324 N 
ATOM     29  H   UNL     1      32.832   1.087  49.602  1.00  0.00     0.170 HD
BRANCH  28  30
ATOM     30  C   UNL     1      33.065   0.973  51.698  1.00  0.00     0.227 A 
ATOM     31  N   UNL     1      33.752   1.875  52.387  1.00  0.00    -0.221 NA
ATOM     32  N   UNL     1      32.068   0.223  52.234  1.00  0.00    -0.213 NA
ATOM     33  C   UNL     1      33.391   2.059  53.671  1.00  0.00     0.117 A 
ATOM     34  C   UNL     1      31.767   0.420  53.522  1.00  0.00     0.077 A 
ATOM     35  C   UNL     1      32.424   1.339  54.261  1.00  0.00     0.049 A 
BRANCH  34  36
ATOM     36  C   UNL     1      30.645  -0.400  54.052  1.00  0.00     0.019 A 
ATOM     37  C   UNL     1      29.583   0.179  54.764  1.00  0.00     0.013 A 
ATOM     38  C   UNL     1      30.629  -1.796  53.862  1.00  0.00     0.121 A 
ATOM     39  C   UNL     1      28.575  -0.640  55.257  1.00  0.00     0.021 A 
ATOM     40  N   UNL     1      29.664  -2.592  54.342  1.00  0.00    -0.264 NA
ATOM     41  C   UNL     1      28.647  -2.008  54.998  1.00  0.00     0.111 A 
ENDBRANCH  34  36
ENDBRANCH  28  30
ENDBRANCH   6  28
TORSDOF 7
ENDMDL
MODEL 18
REMARK VINA RESULT:   -10.542      5.744     10.823
REMARK INTER + INTRA:         -13.796
REMARK INTER:                 -12.630
REMARK INTRA:                  -1.166
REMARK CONF_INDEPENDENT:        2.088
REMARK UNBOUND:                -1.166
REMARK SMILES Cc1cn(-c2cc(NC(=O)c3ccc(C)c(Nc4nccc(-c5cccnc5)n4)c3)cc(C(F)(F)F)c2)cn1
REMARK SMILES IDX 11 1 12 2 13 3 14 4 15 5 16 6 30 7 9 8 10 9 8 10 7 12 6 13
REMARK SMILES IDX 31 14 5 15 32 16 37 17 4 18 3 19 38 20 2 21 39 22 1 23 33 24
REMARK SMILES IDX 34 25 35 26 36 27 17 28 18 30 19 31 29 32 20 33 22 34 21 35
REMARK SMILES IDX 23 36 24 37 28 38 25 39 27 40 26 41
REMARK H PARENT 8 11 17 29
ROOT
ATOM      1  C   UNL     1      22.350   6.451  55.272  1.00  0.00     0.042 A 
ATOM      2  C   UNL     1      21.624   7.584  54.877  1.00  0.00     0.014 A 
ATOM      3  C   UNL     1      21.156   8.510  55.810  1.00  0.00     0.006 A 
ATOM      4  C   UNL     1      21.319   8.304  57.171  1.00  0.00    -0.027 A 
ATOM      5  C   UNL     1      20.797   9.319  58.178  1.00  0.00     0.046 C 
ATOM      6  C   UNL     1      21.948   7.128  57.575  1.00  0.00     0.045 A 
ATOM      7  C   UNL     1      22.432   6.223  56.622  1.00  0.00     0.040 A 
ENDROOT
BRANCH   1   8
ATOM      8  C   UNL     1      22.769   5.360  54.370  1.00  0.00     0.255 C 
ATOM      9  O   UNL     1      21.900   4.586  54.054  1.00  0.00    -0.269 OA
ATOM     10  N   UNL     1      23.981   5.490  53.809  1.00  0.00    -0.322 N 
ATOM     11  H   UNL     1      24.547   6.300  54.100  1.00  0.00     0.170 HD
BRANCH  10  12
ATOM     12  C   UNL     1      24.542   4.633  52.870  1.00  0.00     0.044 A 
ATOM     13  C   UNL     1      23.789   4.179  51.759  1.00  0.00     0.052 A 
ATOM     14  C   UNL     1      25.833   4.098  53.068  1.00  0.00     0.039 A 
ATOM     15  C   UNL     1      24.348   3.325  50.804  1.00  0.00     0.049 A 
ATOM     16  C   UNL     1      26.409   3.245  52.084  1.00  0.00     0.060 A 
ATOM     17  C   UNL     1      25.642   2.847  50.986  1.00  0.00     0.039 A 
BRANCH  15  18
ATOM     18  N   UNL     1      23.626   2.903  49.678  1.00  0.00    -0.306 N 
ATOM     19  C   UNL     1      22.850   1.757  49.513  1.00  0.00     0.116 A 
ATOM     20  C   UNL     1      23.608   3.486  48.473  1.00  0.00     0.204 A 
ATOM     21  C   UNL     1      22.414   1.723  48.235  1.00  0.00     0.056 A 
ATOM     22  N   UNL     1      22.872   2.830  47.610  1.00  0.00    -0.242 NA
ATOM     23  C   UNL     1      21.528   0.689  47.583  1.00  0.00     0.068 C 
ENDBRANCH  15  18
BRANCH  16  24
ATOM     24  C   UNL     1      27.801   2.742  52.289  1.00  0.00     0.416 C 
ATOM     25  F   UNL     1      27.949   1.409  52.163  1.00  0.00    -0.166 F 
ATOM     26  F   UNL     1      28.617   3.200  51.348  1.00  0.00    -0.166 F 
ATOM     27  F   UNL     1      28.258   2.992  53.534  1.00  0.00    -0.166 F 
ENDBRANCH  16  24
ENDBRANCH  10  12
ENDBRANCH   1   8
BRANCH   6  28
ATOM     28  N   UNL     1      22.268   6.975  58.930  1.00  0.00    -0.324 N 
ATOM     29  H   UNL     1      21.722   6.334  59.523  1.00  0.00     0.170 HD
BRANCH  28  30
ATOM     30  C   UNL     1      23.334   7.697  59.470  1.00  0.00     0.227 A 
ATOM     31  N   UNL     1      23.595   8.995  59.371  1.00  0.00    -0.221 NA
ATOM     32  N   UNL     1      24.159   6.814  60.088  1.00  0.00    -0.213 NA
ATOM     33  C   UNL     1      24.726   9.431  59.957  1.00  0.00     0.117 A 
ATOM     34  C   UNL     1      25.287   7.290  60.628  1.00  0.00     0.077 A 
ATOM     35  C   UNL     1      25.589   8.605  60.569  1.00  0.00     0.049 A 
BRANCH  34  36
ATOM     36  C   UNL     1      26.139   6.289  61.323  1.00  0.00     0.019 A 
ATOM     37  C   UNL     1      26.400   6.375  62.700  1.00  0.00     0.013 A 
ATOM     38  C   UNL     1      26.724   5.227  60.606  1.00  0.00     0.121 A 
ATOM     39  C   UNL     1      27.224   5.426  63.291  1.00  0.00     0.021 A 
ATOM     40  N   UNL     1      27.525   4.314  61.169  1.00  0.00    -0.264 NA
ATOM     41  C   UNL     1      27.737   4.405  62.492  1.00  0.00     0.111 A 
ENDBRANCH  34  36
ENDBRANCH  28  30
ENDBRANCH   6  28
TORSDOF 7
ENDMDL
MODEL 19
REMARK VINA RESULT:   -10.326      3.429     11.113
REMARK INTER + INTRA:         -13.744
REMARK INTER:                 -12.414
REMARK INTRA:                  -1.330
REMARK CONF_INDEPENDENT:        2.088
REMARK UNBOUND:                -1.330
REMARK SMILES Cc1cn(-c2cc(NC(=O)c3ccc(C)c(Nc4nccc(-c5cccnc5)n4)c3)cc(C(F)(F)F)c2)cn1
REMARK SMILES IDX 11 1 12 2 13 3 14 4 15 5 16 6 30 7 9 8 10 9 8 10 7 12 6 13
REMARK SMILES IDX 31 14 5 15 32 16 37 17 4 18 3 19 38 20 2 21 39 22 1 23 33 24
REMARK SMILES IDX 34 25 35 26 36 27 17 28 18 30 19 31 29 32 20 33 22 34 21 35
REMARK SMILES IDX 23 36 24 37 28 38 25 39 27 40 26 41
REMARK H PARENT 8 11 17 29
ROOT
ATOM      1  C   UNL     1      25.586   3.801  51.197  1.00  0.00     0.042 A 
ATOM      2  C   UNL     1      25.374   3.618  49.822  1.00  0.00     0.014 A 
ATOM      3  C   UNL     1      24.451   4.393  49.119  1.00  0.00     0.006 A 
ATOM      4  C   UNL     1      23.648   5.318  49.767  1.00  0.00    -0.027 A 
ATOM      5  C   UNL     1      22.640   6.151  48.989  1.00  0.00     0.046 C 
ATOM      6  C   UNL     1      23.781   5.432  51.150  1.00  0.00     0.045 A 
ATOM      7  C   UNL     1      24.731   4.662  51.834  1.00  0.00     0.040 A 
ENDROOT
BRANCH   1   8
ATOM      8  C   UNL     1      26.445   2.946  52.039  1.00  0.00     0.255 C 
ATOM      9  O   UNL     1      26.021   2.716  53.146  1.00  0.00    -0.269 OA
ATOM     10  N   UNL     1      27.454   2.321  51.414  1.00  0.00    -0.322 N 
ATOM     11  H   UNL     1      27.591   2.538  50.416  1.00  0.00     0.170 HD
BRANCH  10  12
ATOM     12  C   UNL     1      28.331   1.410  51.988  1.00  0.00     0.044 A 
ATOM     13  C   UNL     1      29.544   1.062  51.343  1.00  0.00     0.052 A 
ATOM     14  C   UNL     1      27.977   0.719  53.168  1.00  0.00     0.039 A 
ATOM     15  C   UNL     1      30.437   0.154  51.918  1.00  0.00     0.049 A 
ATOM     16  C   UNL     1      28.898  -0.189  53.763  1.00  0.00     0.060 A 
ATOM     17  C   UNL     1      30.097  -0.481  53.108  1.00  0.00     0.039 A 
BRANCH  15  18
ATOM     18  N   UNL     1      31.660  -0.165  51.308  1.00  0.00    -0.306 N 
ATOM     19  C   UNL     1      31.937  -1.155  50.367  1.00  0.00     0.116 A 
ATOM     20  C   UNL     1      32.855   0.370  51.581  1.00  0.00     0.204 A 
ATOM     21  C   UNL     1      33.267  -1.152  50.130  1.00  0.00     0.056 A 
ATOM     22  N   UNL     1      33.819  -0.169  50.875  1.00  0.00    -0.242 NA
ATOM     23  C   UNL     1      34.042  -2.028  49.176  1.00  0.00     0.068 C 
ENDBRANCH  15  18
BRANCH  16  24
ATOM     24  C   UNL     1      28.523  -0.861  55.044  1.00  0.00     0.416 C 
ATOM     25  F   UNL     1      27.525  -1.762  54.943  1.00  0.00    -0.166 F 
ATOM     26  F   UNL     1      29.522  -1.607  55.502  1.00  0.00    -0.166 F 
ATOM     27  F   UNL     1      28.066   0.011  55.966  1.00  0.00    -0.166 F 
ENDBRANCH  16  24
ENDBRANCH  10  12
ENDBRANCH   1   8
BRANCH   6  28
ATOM     28  N   UNL     1      23.101   6.469  51.802  1.00  0.00    -0.324 N 
ATOM     29  H   UNL     1      22.848   7.326  51.291  1.00  0.00     0.170 HD
BRANCH  28  30
ATOM     30  C   UNL     1      22.767   6.330  53.151  1.00  0.00     0.227 A 
ATOM     31  N   UNL     1      21.573   6.138  53.698  1.00  0.00    -0.221 NA
ATOM     32  N   UNL     1      23.902   6.505  53.876  1.00  0.00    -0.213 NA
ATOM     33  C   UNL     1      21.525   6.082  55.042  1.00  0.00     0.117 A 
ATOM     34  C   UNL     1      23.799   6.473  55.210  1.00  0.00     0.077 A 
ATOM     35  C   UNL     1      22.609   6.264  55.813  1.00  0.00     0.049 A 
BRANCH  34  36
ATOM     36  C   UNL     1      25.073   6.636  55.956  1.00  0.00     0.019 A 
ATOM     37  C   UNL     1      26.308   6.280  55.390  1.00  0.00     0.013 A 
ATOM     38  C   UNL     1      25.073   7.141  57.271  1.00  0.00     0.121 A 
ATOM     39  C   UNL     1      27.465   6.430  56.144  1.00  0.00     0.021 A 
ATOM     40  N   UNL     1      26.183   7.281  58.006  1.00  0.00    -0.264 NA
ATOM     41  C   UNL     1      27.353   6.957  57.430  1.00  0.00     0.111 A 
ENDBRANCH  34  36
ENDBRANCH  28  30
ENDBRANCH   6  28
TORSDOF 7
ENDMDL
