MODEL 1
REMARK VINA RESULT:   -15.152      0.000      0.000
REMARK INTER + INTRA:         -18.419
REMARK INTER:                 -17.240
REMARK INTRA:                  -1.179
REMARK CONF_INDEPENDENT:        2.088
REMARK UNBOUND:                -1.179
REMARK SMILES Cc1cn(-c2cc(NC(=O)c3ccc(C)c(Nc4nccc(-c5cccnc5)n4)c3)cc(C(F)(F)F)c2)cn1
REMARK SMILES IDX 11 1 12 2 13 3 14 4 15 5 16 6 30 7 9 8 10 9 8 10 7 12 6 13
REMARK SMILES IDX 31 14 5 15 32 16 37 17 4 18 3 19 38 20 2 21 39 22 1 23 33 24
REMARK SMILES IDX 34 25 35 26 36 27 17 28 18 30 19 31 29 32 20 33 22 34 21 35
REMARK SMILES IDX 23 36 24 37 28 38 25 39 27 40 26 41
REMARK H PARENT 8 11 17 29
ROOT
ATOM      1  C   UNL     1      27.975   1.857  53.219  1.00  0.00     0.042 A 
ATOM      2  C   UNL     1      27.696   1.347  54.495  1.00  0.00     0.014 A 
ATOM      3  C   UNL     1      28.416   0.275  55.024  1.00  0.00     0.006 A 
ATOM      4  C   UNL     1      29.380  -0.382  54.275  1.00  0.00    -0.027 A 
ATOM      5  C   UNL     1      30.153  -1.555  54.862  1.00  0.00     0.046 C 
ATOM      6  C   UNL     1      29.590   0.054  52.968  1.00  0.00     0.045 A 
ATOM      7  C   UNL     1      28.874   1.148  52.465  1.00  0.00     0.040 A 
ENDROOT
BRANCH   1   8
ATOM      8  C   UNL     1      27.184   2.899  52.535  1.00  0.00     0.255 C 
ATOM      9  O   UNL     1      27.525   3.150  51.405  1.00  0.00    -0.269 OA
ATOM     10  N   UNL     1      26.041   3.263  53.135  1.00  0.00    -0.322 N 
ATOM     11  H   UNL     1      25.839   2.840  54.052  1.00  0.00     0.170 HD
BRANCH  10  12
ATOM     12  C   UNL     1      25.106   4.159  52.633  1.00  0.00     0.044 A 
ATOM     13  C   UNL     1      24.180   4.801  53.493  1.00  0.00     0.052 A 
ATOM     14  C   UNL     1      24.977   4.358  51.241  1.00  0.00     0.039 A 
ATOM     15  C   UNL     1      23.241   5.711  52.998  1.00  0.00     0.049 A 
ATOM     16  C   UNL     1      24.035   5.303  50.742  1.00  0.00     0.060 A 
ATOM     17  C   UNL     1      23.161   5.937  51.628  1.00  0.00     0.039 A 
BRANCH  15  18
ATOM     18  N   UNL     1      22.348   6.384  53.846  1.00  0.00    -0.306 N 
ATOM     19  C   UNL     1      22.038   6.119  55.179  1.00  0.00     0.116 A 
ATOM     20  C   UNL     1      21.525   7.384  53.511  1.00  0.00     0.204 A 
ATOM     21  C   UNL     1      21.061   6.970  55.562  1.00  0.00     0.056 A 
ATOM     22  N   UNL     1      20.777   7.775  54.514  1.00  0.00    -0.242 NA
ATOM     23  C   UNL     1      20.407   7.084  56.918  1.00  0.00     0.068 C 
ENDBRANCH  15  18
BRANCH  16  24
ATOM     24  C   UNL     1      23.962   5.538  49.268  1.00  0.00     0.416 C 
ATOM     25  F   UNL     1      24.699   6.574  48.820  1.00  0.00    -0.166 F 
ATOM     26  F   UNL     1      24.483   4.519  48.596  1.00  0.00    -0.166 F 
ATOM     27  F   UNL     1      22.713   5.842  48.859  1.00  0.00    -0.166 F 
ENDBRANCH  16  24
ENDBRANCH  10  12
ENDBRANCH   1   8
BRANCH   6  28
ATOM     28  N   UNL     1      30.666  -0.484  52.251  1.00  0.00    -0.324 N 
ATOM     29  H   UNL     1      30.525  -1.298  51.636  1.00  0.00     0.170 HD
BRANCH  28  30
ATOM     30  C   UNL     1      31.932   0.092  52.375  1.00  0.00     0.227 A 
ATOM     31  N   UNL     1      32.331   1.053  53.198  1.00  0.00    -0.221 NA
ATOM     32  N   UNL     1      32.728  -0.453  51.420  1.00  0.00    -0.213 NA
ATOM     33  C   UNL     1      33.610   1.459  53.080  1.00  0.00     0.117 A 
ATOM     34  C   UNL     1      33.981   0.006  51.320  1.00  0.00     0.077 A 
ATOM     35  C   UNL     1      34.441   0.970  52.146  1.00  0.00     0.049 A 
BRANCH  34  36
ATOM     36  C   UNL     1      34.823  -0.647  50.283  1.00  0.00     0.019 A 
ATOM     37  C   UNL     1      36.088  -0.145  49.939  1.00  0.00     0.013 A 
ATOM     38  C   UNL     1      34.360  -1.790  49.601  1.00  0.00     0.121 A 
ATOM     39  C   UNL     1      36.820  -0.782  48.945  1.00  0.00     0.021 A 
ATOM     40  N   UNL     1      35.057  -2.403  48.636  1.00  0.00    -0.264 NA
ATOM     41  C   UNL     1      36.275  -1.917  48.345  1.00  0.00     0.111 A 
ENDBRANCH  34  36
ENDBRANCH  28  30
ENDBRANCH   6  28
TORSDOF 7
ENDMDL
MODEL 2
REMARK VINA RESULT:   -13.074      2.350      3.674
REMARK INTER + INTRA:         -16.403
REMARK INTER:                 -15.162
REMARK INTRA:                  -1.240
REMARK CONF_INDEPENDENT:        2.088
REMARK UNBOUND:                -1.240
REMARK SMILES Cc1cn(-c2cc(NC(=O)c3ccc(C)c(Nc4nccc(-c5cccnc5)n4)c3)cc(C(F)(F)F)c2)cn1
REMARK SMILES IDX 11 1 12 2 13 3 14 4 15 5 16 6 30 7 9 8 10 9 8 10 7 12 6 13
REMARK SMILES IDX 31 14 5 15 32 16 37 17 4 18 3 19 38 20 2 21 39 22 1 23 33 24
REMARK SMILES IDX 34 25 35 26 36 27 17 28 18 30 19 31 29 32 20 33 22 34 21 35
REMARK SMILES IDX 23 36 24 37 28 38 25 39 27 40 26 41
REMARK H PARENT 8 11 17 29
ROOT
ATOM      1  C   UNL     1      28.345   1.493  53.402  1.00  0.00     0.042 A 
ATOM      2  C   UNL     1      28.098   0.872  54.636  1.00  0.00     0.014 A 
ATOM      3  C   UNL     1      28.841  -0.233  55.056  1.00  0.00     0.006 A 
ATOM      4  C   UNL     1      29.796  -0.810  54.234  1.00  0.00    -0.027 A 
ATOM      5  C   UNL     1      30.594  -2.019  54.702  1.00  0.00     0.046 C 
ATOM      6  C   UNL     1      29.974  -0.261  52.966  1.00  0.00     0.045 A 
ATOM      7  C   UNL     1      29.236   0.862  52.573  1.00  0.00     0.040 A 
ENDROOT
BRANCH   1   8
ATOM      8  C   UNL     1      27.528   2.579  52.826  1.00  0.00     0.255 C 
ATOM      9  O   UNL     1      27.816   2.902  51.700  1.00  0.00    -0.269 OA
ATOM     10  N   UNL     1      26.418   2.907  53.504  1.00  0.00    -0.322 N 
ATOM     11  H   UNL     1      26.258   2.426  54.400  1.00  0.00     0.170 HD
BRANCH  10  12
ATOM     12  C   UNL     1      25.465   3.837  53.107  1.00  0.00     0.044 A 
ATOM     13  C   UNL     1      25.087   3.955  51.746  1.00  0.00     0.052 A 
ATOM     14  C   UNL     1      24.940   4.766  54.031  1.00  0.00     0.039 A 
ATOM     15  C   UNL     1      24.122   4.880  51.339  1.00  0.00     0.049 A 
ATOM     16  C   UNL     1      23.940   5.693  53.618  1.00  0.00     0.060 A 
ATOM     17  C   UNL     1      23.575   5.755  52.271  1.00  0.00     0.039 A 
BRANCH  15  18
ATOM     18  N   UNL     1      23.710   4.976  50.001  1.00  0.00    -0.306 N 
ATOM     19  C   UNL     1      22.583   5.604  49.474  1.00  0.00     0.116 A 
ATOM     20  C   UNL     1      24.283   4.391  48.942  1.00  0.00     0.204 A 
ATOM     21  C   UNL     1      22.549   5.366  48.145  1.00  0.00     0.056 A 
ATOM     22  N   UNL     1      23.639   4.632  47.827  1.00  0.00    -0.242 NA
ATOM     23  C   UNL     1      21.534   5.852  47.139  1.00  0.00     0.068 C 
ENDBRANCH  15  18
BRANCH  16  24
ATOM     24  C   UNL     1      23.358   6.624  54.630  1.00  0.00     0.416 C 
ATOM     25  F   UNL     1      23.978   7.817  54.730  1.00  0.00    -0.166 F 
ATOM     26  F   UNL     1      22.124   6.983  54.295  1.00  0.00    -0.166 F 
ATOM     27  F   UNL     1      23.428   6.129  55.883  1.00  0.00    -0.166 F 
ENDBRANCH  16  24
ENDBRANCH  10  12
ENDBRANCH   1   8
BRANCH   6  28
ATOM     28  N   UNL     1      31.041  -0.722  52.183  1.00  0.00    -0.324 N 
ATOM     29  H   UNL     1      30.894  -1.474  51.495  1.00  0.00     0.170 HD
BRANCH  28  30
ATOM     30  C   UNL     1      32.306  -0.154  52.345  1.00  0.00     0.227 A 
ATOM     31  N   UNL     1      32.703   0.762  53.219  1.00  0.00    -0.221 NA
ATOM     32  N   UNL     1      33.107  -0.649  51.366  1.00  0.00    -0.213 NA
ATOM     33  C   UNL     1      33.982   1.172  53.128  1.00  0.00     0.117 A 
ATOM     34  C   UNL     1      34.361  -0.187  51.296  1.00  0.00     0.077 A 
ATOM     35  C   UNL     1      34.817   0.732  52.174  1.00  0.00     0.049 A 
BRANCH  34  36
ATOM     36  C   UNL     1      35.208  -0.785  50.230  1.00  0.00     0.019 A 
ATOM     37  C   UNL     1      35.052  -2.122  49.832  1.00  0.00     0.013 A 
ATOM     38  C   UNL     1      36.208  -0.021  49.598  1.00  0.00     0.121 A 
ATOM     39  C   UNL     1      35.889  -2.635  48.848  1.00  0.00     0.021 A 
ATOM     40  N   UNL     1      37.022  -0.512  48.655  1.00  0.00    -0.264 NA
ATOM     41  C   UNL     1      36.834  -1.786  48.275  1.00  0.00     0.111 A 
ENDBRANCH  34  36
ENDBRANCH  28  30
ENDBRANCH   6  28
TORSDOF 7
ENDMDL
MODEL 3
REMARK VINA RESULT:   -12.226      1.578      2.264
REMARK INTER + INTRA:         -15.782
REMARK INTER:                 -14.314
REMARK INTRA:                  -1.468
REMARK CONF_INDEPENDENT:        2.088
REMARK UNBOUND:                -1.468
REMARK SMILES Cc1cn(-c2cc(NC(=O)c3ccc(C)c(Nc4nccc(-c5cccnc5)n4)c3)cc(C(F)(F)F)c2)cn1
REMARK SMILES IDX 11 1 12 2 13 3 14 4 15 5 16 6 30 7 9 8 10 9 8 10 7 12 6 13
REMARK SMILES IDX 31 14 5 15 32 16 37 17 4 18 3 19 38 20 2 21 39 22 1 23 33 24
REMARK SMILES IDX 34 25 35 26 36 27 17 28 18 30 19 31 29 32 20 33 22 34 21 35
REMARK SMILES IDX 23 36 24 37 28 38 25 39 27 40 26 41
REMARK H PARENT 8 11 17 29
ROOT
ATOM      1  C   UNL     1      27.996   1.971  52.910  1.00  0.00     0.042 A 
ATOM      2  C   UNL     1      27.626   0.689  53.342  1.00  0.00     0.014 A 
ATOM      3  C   UNL     1      28.495  -0.105  54.091  1.00  0.00     0.006 A 
ATOM      4  C   UNL     1      29.789   0.308  54.367  1.00  0.00    -0.027 A 
ATOM      5  C   UNL     1      30.728  -0.572  55.179  1.00  0.00     0.046 C 
ATOM      6  C   UNL     1      30.198   1.537  53.852  1.00  0.00     0.045 A 
ATOM      7  C   UNL     1      29.302   2.330  53.123  1.00  0.00     0.040 A 
ENDROOT
BRANCH   1   8
ATOM      8  C   UNL     1      27.193   2.823  52.011  1.00  0.00     0.255 C 
ATOM      9  O   UNL     1      27.557   2.850  50.860  1.00  0.00    -0.269 OA
ATOM     10  N   UNL     1      26.024   3.263  52.500  1.00  0.00    -0.322 N 
ATOM     11  H   UNL     1      25.810   3.029  53.480  1.00  0.00     0.170 HD
BRANCH  10  12
ATOM     12  C   UNL     1      25.076   4.004  51.806  1.00  0.00     0.044 A 
ATOM     13  C   UNL     1      24.353   5.040  52.446  1.00  0.00     0.052 A 
ATOM     14  C   UNL     1      24.726   3.662  50.482  1.00  0.00     0.039 A 
ATOM     15  C   UNL     1      23.404   5.798  51.754  1.00  0.00     0.049 A 
ATOM     16  C   UNL     1      23.776   4.449  49.771  1.00  0.00     0.060 A 
ATOM     17  C   UNL     1      23.107   5.482  50.432  1.00  0.00     0.039 A 
BRANCH  15  18
ATOM     18  N   UNL     1      22.712   6.854  52.367  1.00  0.00    -0.306 N 
ATOM     19  C   UNL     1      22.734   8.212  52.057  1.00  0.00     0.116 A 
ATOM     20  C   UNL     1      21.943   6.780  53.460  1.00  0.00     0.204 A 
ATOM     21  C   UNL     1      21.981   8.866  52.968  1.00  0.00     0.056 A 
ATOM     22  N   UNL     1      21.468   7.948  53.818  1.00  0.00    -0.242 NA
ATOM     23  C   UNL     1      21.685  10.344  53.040  1.00  0.00     0.068 C 
ENDBRANCH  15  18
BRANCH  16  24
ATOM     24  C   UNL     1      23.468   4.102  48.351  1.00  0.00     0.416 C 
ATOM     25  F   UNL     1      24.547   3.920  47.563  1.00  0.00    -0.166 F 
ATOM     26  F   UNL     1      22.865   2.921  48.268  1.00  0.00    -0.166 F 
ATOM     27  F   UNL     1      22.781   5.077  47.721  1.00  0.00    -0.166 F 
ENDBRANCH  16  24
ENDBRANCH  10  12
ENDBRANCH   1   8
BRANCH   6  28
ATOM     28  N   UNL     1      31.439   2.048  54.252  1.00  0.00    -0.324 N 
ATOM     29  H   UNL     1      31.488   2.844  54.903  1.00  0.00     0.170 HD
BRANCH  28  30
ATOM     30  C   UNL     1      32.611   1.469  53.760  1.00  0.00     0.227 A 
ATOM     31  N   UNL     1      33.857   1.617  54.191  1.00  0.00    -0.221 NA
ATOM     32  N   UNL     1      32.281   0.744  52.660  1.00  0.00    -0.213 NA
ATOM     33  C   UNL     1      34.817   0.972  53.501  1.00  0.00     0.117 A 
ATOM     34  C   UNL     1      33.273   0.147  51.989  1.00  0.00     0.077 A 
ATOM     35  C   UNL     1      34.556   0.254  52.398  1.00  0.00     0.049 A 
BRANCH  34  36
ATOM     36  C   UNL     1      32.858  -0.662  50.813  1.00  0.00     0.019 A 
ATOM     37  C   UNL     1      31.504  -0.867  50.503  1.00  0.00     0.013 A 
ATOM     38  C   UNL     1      33.822  -1.261  49.980  1.00  0.00     0.121 A 
ATOM     39  C   UNL     1      31.174  -1.653  49.407  1.00  0.00     0.021 A 
ATOM     40  N   UNL     1      33.511  -2.027  48.926  1.00  0.00    -0.264 NA
ATOM     41  C   UNL     1      32.208  -2.186  48.638  1.00  0.00     0.111 A 
ENDBRANCH  34  36
ENDBRANCH  28  30
ENDBRANCH   6  28
TORSDOF 7
ENDMDL
MODEL 4
REMARK VINA RESULT:   -11.566      3.751     11.761
REMARK INTER + INTRA:         -14.810
REMARK INTER:                 -13.654
REMARK INTRA:                  -1.156
REMARK CONF_INDEPENDENT:        2.088
REMARK UNBOUND:                -1.156
REMARK SMILES Cc1cn(-c2cc(NC(=O)c3ccc(C)c(Nc4nccc(-c5cccnc5)n4)c3)cc(C(F)(F)F)c2)cn1
REMARK SMILES IDX 11 1 12 2 13 3 14 4 15 5 16 6 30 7 9 8 10 9 8 10 7 12 6 13
REMARK SMILES IDX 31 14 5 15 32 16 37 17 4 18 3 19 38 20 2 21 39 22 1 23 33 24
REMARK SMILES IDX 34 25 35 26 36 27 17 28 18 30 19 31 29 32 20 33 22 34 21 35
REMARK SMILES IDX 23 36 24 37 28 38 25 39 27 40 26 41
REMARK H PARENT 8 11 17 29
ROOT
ATOM      1  C   UNL     1      25.910   3.824  51.919  1.00  0.00     0.042 A 
ATOM      2  C   UNL     1      25.275   4.268  50.749  1.00  0.00     0.014 A 
ATOM      3  C   UNL     1      24.154   5.098  50.801  1.00  0.00     0.006 A 
ATOM      4  C   UNL     1      23.574   5.448  52.009  1.00  0.00    -0.027 A 
ATOM      5  C   UNL     1      22.347   6.348  52.050  1.00  0.00     0.046 C 
ATOM      6  C   UNL     1      24.139   4.926  53.172  1.00  0.00     0.045 A 
ATOM      7  C   UNL     1      25.279   4.115  53.100  1.00  0.00     0.040 A 
ENDROOT
BRANCH   1   8
ATOM      8  C   UNL     1      27.017   2.848  51.959  1.00  0.00     0.255 C 
ATOM      9  O   UNL     1      27.721   2.822  50.980  1.00  0.00    -0.269 OA
ATOM     10  N   UNL     1      27.269   2.289  53.152  1.00  0.00    -0.322 N 
ATOM     11  H   UNL     1      26.634   2.531  53.926  1.00  0.00     0.170 HD
BRANCH  10  12
ATOM     12  C   UNL     1      28.308   1.413  53.439  1.00  0.00     0.044 A 
ATOM     13  C   UNL     1      29.615   1.648  52.946  1.00  0.00     0.052 A 
ATOM     14  C   UNL     1      28.059   0.205  54.128  1.00  0.00     0.039 A 
ATOM     15  C   UNL     1      30.669   0.778  53.238  1.00  0.00     0.049 A 
ATOM     16  C   UNL     1      29.138  -0.669  54.443  1.00  0.00     0.060 A 
ATOM     17  C   UNL     1      30.418  -0.383  53.962  1.00  0.00     0.039 A 
BRANCH  15  18
ATOM     18  N   UNL     1      31.975   1.024  52.790  1.00  0.00    -0.306 N 
ATOM     19  C   UNL     1      32.617   0.538  51.652  1.00  0.00     0.116 A 
ATOM     20  C   UNL     1      32.923   1.721  53.427  1.00  0.00     0.204 A 
ATOM     21  C   UNL     1      33.897   0.971  51.672  1.00  0.00     0.056 A 
ATOM     22  N   UNL     1      34.059   1.737  52.774  1.00  0.00    -0.242 NA
ATOM     23  C   UNL     1      34.977   0.722  50.648  1.00  0.00     0.068 C 
ENDBRANCH  15  18
BRANCH  16  24
ATOM     24  C   UNL     1      28.856  -1.911  55.225  1.00  0.00     0.416 C 
ATOM     25  F   UNL     1      28.001  -2.772  54.638  1.00  0.00    -0.166 F 
ATOM     26  F   UNL     1      29.949  -2.654  55.352  1.00  0.00    -0.166 F 
ATOM     27  F   UNL     1      28.270  -1.648  56.411  1.00  0.00    -0.166 F 
ENDBRANCH  16  24
ENDBRANCH  10  12
ENDBRANCH   1   8
BRANCH   6  28
ATOM     28  N   UNL     1      23.673   5.393  54.408  1.00  0.00    -0.324 N 
ATOM     29  H   UNL     1      22.713   5.182  54.714  1.00  0.00     0.170 HD
BRANCH  28  30
ATOM     30  C   UNL     1      24.521   6.148  55.220  1.00  0.00     0.227 A 
ATOM     31  N   UNL     1      25.822   6.373  55.084  1.00  0.00    -0.221 NA
ATOM     32  N   UNL     1      23.794   6.585  56.280  1.00  0.00    -0.213 NA
ATOM     33  C   UNL     1      26.413   7.109  56.044  1.00  0.00     0.117 A 
ATOM     34  C   UNL     1      24.432   7.286  57.225  1.00  0.00     0.077 A 
ATOM     35  C   UNL     1      25.751   7.556  57.123  1.00  0.00     0.049 A 
BRANCH  34  36
ATOM     36  C   UNL     1      23.585   7.771  58.346  1.00  0.00     0.019 A 
ATOM     37  C   UNL     1      24.019   8.792  59.207  1.00  0.00     0.013 A 
ATOM     38  C   UNL     1      22.319   7.202  58.585  1.00  0.00     0.121 A 
ATOM     39  C   UNL     1      23.196   9.188  60.254  1.00  0.00     0.021 A 
ATOM     40  N   UNL     1      21.524   7.574  59.597  1.00  0.00    -0.264 NA
ATOM     41  C   UNL     1      21.953   8.570  60.389  1.00  0.00     0.111 A 
ENDBRANCH  34  36
ENDBRANCH  28  30
ENDBRANCH   6  28
TORSDOF 7
ENDMDL
MODEL 5
REMARK VINA RESULT:   -11.097      3.707     11.934
REMARK INTER + INTRA:         -14.454
REMARK INTER:                 -13.186
REMARK INTRA:                  -1.268
REMARK CONF_INDEPENDENT:        2.088
REMARK UNBOUND:                -1.268
REMARK SMILES Cc1cn(-c2cc(NC(=O)c3ccc(C)c(Nc4nccc(-c5cccnc5)n4)c3)cc(C(F)(F)F)c2)cn1
REMARK SMILES IDX 11 1 12 2 13 3 14 4 15 5 16 6 30 7 9 8 10 9 8 10 7 12 6 13
REMARK SMILES IDX 31 14 5 15 32 16 37 17 4 18 3 19 38 20 2 21 39 22 1 23 33 24
REMARK SMILES IDX 34 25 35 26 36 27 17 28 18 30 19 31 29 32 20 33 22 34 21 35
REMARK SMILES IDX 23 36 24 37 28 38 25 39 27 40 26 41
REMARK H PARENT 8 11 17 29
ROOT
ATOM      1  C   UNL     1      26.253   3.331  51.629  1.00  0.00     0.042 A 
ATOM      2  C   UNL     1      25.554   3.601  50.443  1.00  0.00     0.014 A 
ATOM      3  C   UNL     1      24.309   4.232  50.460  1.00  0.00     0.006 A 
ATOM      4  C   UNL     1      23.677   4.542  51.654  1.00  0.00    -0.027 A 
ATOM      5  C   UNL     1      22.316   5.223  51.658  1.00  0.00     0.046 C 
ATOM      6  C   UNL     1      24.320   4.182  52.837  1.00  0.00     0.045 A 
ATOM      7  C   UNL     1      25.580   3.572  52.798  1.00  0.00     0.040 A 
ENDROOT
BRANCH   1   8
ATOM      8  C   UNL     1      27.508   2.559  51.710  1.00  0.00     0.255 C 
ATOM      9  O   UNL     1      28.395   2.932  50.982  1.00  0.00    -0.269 OA
ATOM     10  N   UNL     1      27.612   1.707  52.742  1.00  0.00    -0.322 N 
ATOM     11  H   UNL     1      26.789   1.610  53.353  1.00  0.00     0.170 HD
BRANCH  10  12
ATOM     12  C   UNL     1      28.729   0.945  53.061  1.00  0.00     0.044 A 
ATOM     13  C   UNL     1      30.003   1.264  52.530  1.00  0.00     0.052 A 
ATOM     14  C   UNL     1      28.597  -0.237  53.823  1.00  0.00     0.039 A 
ATOM     15  C   UNL     1      31.134   0.508  52.853  1.00  0.00     0.049 A 
ATOM     16  C   UNL     1      29.754  -0.992  54.169  1.00  0.00     0.060 A 
ATOM     17  C   UNL     1      30.997  -0.624  53.648  1.00  0.00     0.039 A 
BRANCH  15  18
ATOM     18  N   UNL     1      32.407   0.841  52.366  1.00  0.00    -0.306 N 
ATOM     19  C   UNL     1      33.046   0.398  51.209  1.00  0.00     0.116 A 
ATOM     20  C   UNL     1      33.325   1.600  52.977  1.00  0.00     0.204 A 
ATOM     21  C   UNL     1      34.294   0.916  51.192  1.00  0.00     0.056 A 
ATOM     22  N   UNL     1      34.437   1.691  52.290  1.00  0.00    -0.242 NA
ATOM     23  C   UNL     1      35.358   0.739  50.136  1.00  0.00     0.068 C 
ENDBRANCH  15  18
BRANCH  16  24
ATOM     24  C   UNL     1      29.593  -2.205  55.027  1.00  0.00     0.416 C 
ATOM     25  F   UNL     1      29.025  -3.264  54.417  1.00  0.00    -0.166 F 
ATOM     26  F   UNL     1      30.774  -2.695  55.386  1.00  0.00    -0.166 F 
ATOM     27  F   UNL     1      28.785  -1.981  56.085  1.00  0.00    -0.166 F 
ENDBRANCH  16  24
ENDBRANCH  10  12
ENDBRANCH   1   8
BRANCH   6  28
ATOM     28  N   UNL     1      23.781   4.628  54.051  1.00  0.00    -0.324 N 
ATOM     29  H   UNL     1      23.134   4.029  54.583  1.00  0.00     0.170 HD
BRANCH  28  30
ATOM     30  C   UNL     1      24.127   5.892  54.533  1.00  0.00     0.227 A 
ATOM     31  N   UNL     1      25.166   6.241  55.282  1.00  0.00    -0.221 NA
ATOM     32  N   UNL     1      23.146   6.756  54.167  1.00  0.00    -0.213 NA
ATOM     33  C   UNL     1      25.240   7.535  55.648  1.00  0.00     0.117 A 
ATOM     34  C   UNL     1      23.247   8.024  54.581  1.00  0.00     0.077 A 
ATOM     35  C   UNL     1      24.294   8.432  55.330  1.00  0.00     0.049 A 
BRANCH  34  36
ATOM     36  C   UNL     1      22.167   8.937  54.125  1.00  0.00     0.019 A 
ATOM     37  C   UNL     1      20.846   8.490  53.962  1.00  0.00     0.013 A 
ATOM     38  C   UNL     1      22.448  10.285  53.827  1.00  0.00     0.121 A 
ATOM     39  C   UNL     1      19.882   9.382  53.508  1.00  0.00     0.021 A 
ATOM     40  N   UNL     1      21.525  11.147  53.382  1.00  0.00    -0.264 NA
ATOM     41  C   UNL     1      20.265  10.700  53.259  1.00  0.00     0.111 A 
ENDBRANCH  34  36
ENDBRANCH  28  30
ENDBRANCH   6  28
TORSDOF 7
ENDMDL
MODEL 6
REMARK VINA RESULT:   -11.049      4.486      7.915
REMARK INTER + INTRA:         -14.200
REMARK INTER:                 -13.137
REMARK INTRA:                  -1.062
REMARK CONF_INDEPENDENT:        2.088
REMARK UNBOUND:                -1.062
REMARK SMILES Cc1cn(-c2cc(NC(=O)c3ccc(C)c(Nc4nccc(-c5cccnc5)n4)c3)cc(C(F)(F)F)c2)cn1
REMARK SMILES IDX 11 1 12 2 13 3 14 4 15 5 16 6 30 7 9 8 10 9 8 10 7 12 6 13
REMARK SMILES IDX 31 14 5 15 32 16 37 17 4 18 3 19 38 20 2 21 39 22 1 23 33 24
REMARK SMILES IDX 34 25 35 26 36 27 17 28 18 30 19 31 29 32 20 33 22 34 21 35
REMARK SMILES IDX 23 36 24 37 28 38 25 39 27 40 26 41
REMARK H PARENT 8 11 17 29
ROOT
ATOM      1  C   UNL     1      33.887  -0.634  50.831  1.00  0.00     0.042 A 
ATOM      2  C   UNL     1      33.899  -1.875  50.176  1.00  0.00     0.014 A 
ATOM      3  C   UNL     1      34.897  -2.203  49.258  1.00  0.00     0.006 A 
ATOM      4  C   UNL     1      35.869  -1.284  48.895  1.00  0.00    -0.027 A 
ATOM      5  C   UNL     1      36.948  -1.653  47.886  1.00  0.00     0.046 C 
ATOM      6  C   UNL     1      35.802  -0.013  49.465  1.00  0.00     0.045 A 
ATOM      7  C   UNL     1      34.807   0.287  50.403  1.00  0.00     0.040 A 
ENDROOT
BRANCH   1   8
ATOM      8  C   UNL     1      32.806  -0.158  51.716  1.00  0.00     0.255 C 
ATOM      9  O   UNL     1      33.009   0.901  52.259  1.00  0.00    -0.269 OA
ATOM     10  N   UNL     1      31.636  -0.809  51.625  1.00  0.00    -0.322 N 
ATOM     11  H   UNL     1      31.604  -1.626  50.999  1.00  0.00     0.170 HD
BRANCH  10  12
ATOM     12  C   UNL     1      30.466  -0.482  52.297  1.00  0.00     0.044 A 
ATOM     13  C   UNL     1      29.693   0.640  51.908  1.00  0.00     0.052 A 
ATOM     14  C   UNL     1      30.084  -1.189  53.459  1.00  0.00     0.039 A 
ATOM     15  C   UNL     1      28.508   0.971  52.572  1.00  0.00     0.049 A 
ATOM     16  C   UNL     1      28.865  -0.864  54.120  1.00  0.00     0.060 A 
ATOM     17  C   UNL     1      28.117   0.233  53.685  1.00  0.00     0.039 A 
BRANCH  15  18
ATOM     18  N   UNL     1      27.714   2.055  52.169  1.00  0.00    -0.306 N 
ATOM     19  C   UNL     1      26.761   2.762  52.899  1.00  0.00     0.116 A 
ATOM     20  C   UNL     1      27.644   2.583  50.941  1.00  0.00     0.204 A 
ATOM     21  C   UNL     1      26.185   3.666  52.077  1.00  0.00     0.056 A 
ATOM     22  N   UNL     1      26.774   3.561  50.866  1.00  0.00    -0.242 NA
ATOM     23  C   UNL     1      25.113   4.675  52.412  1.00  0.00     0.068 C 
ENDBRANCH  15  18
BRANCH  16  24
ATOM     24  C   UNL     1      28.455  -1.667  55.311  1.00  0.00     0.416 C 
ATOM     25  F   UNL     1      27.514  -2.602  55.071  1.00  0.00    -0.166 F 
ATOM     26  F   UNL     1      29.465  -2.402  55.762  1.00  0.00    -0.166 F 
ATOM     27  F   UNL     1      27.900  -0.905  56.277  1.00  0.00    -0.166 F 
ENDBRANCH  16  24
ENDBRANCH  10  12
ENDBRANCH   1   8
BRANCH   6  28
ATOM     28  N   UNL     1      36.862   0.875  49.239  1.00  0.00    -0.324 N 
ATOM     29  H   UNL     1      36.676   1.830  48.902  1.00  0.00     0.170 HD
BRANCH  28  30
ATOM     30  C   UNL     1      38.172   0.455  49.476  1.00  0.00     0.227 A 
ATOM     31  N   UNL     1      38.629  -0.353  50.425  1.00  0.00    -0.221 NA
ATOM     32  N   UNL     1      38.976   1.092  48.586  1.00  0.00    -0.213 NA
ATOM     33  C   UNL     1      39.959  -0.560  50.455  1.00  0.00     0.117 A 
ATOM     34  C   UNL     1      40.294   0.880  48.676  1.00  0.00     0.077 A 
ATOM     35  C   UNL     1      40.806   0.053  49.613  1.00  0.00     0.049 A 
BRANCH  34  36
ATOM     36  C   UNL     1      41.127   1.572  47.658  1.00  0.00     0.019 A 
ATOM     37  C   UNL     1      42.397   2.081  47.970  1.00  0.00     0.013 A 
ATOM     38  C   UNL     1      40.650   1.750  46.344  1.00  0.00     0.121 A 
ATOM     39  C   UNL     1      43.120   2.741  46.985  1.00  0.00     0.021 A 
ATOM     40  N   UNL     1      41.339   2.392  45.393  1.00  0.00    -0.264 NA
ATOM     41  C   UNL     1      42.562   2.847  45.711  1.00  0.00     0.111 A 
ENDBRANCH  34  36
ENDBRANCH  28  30
ENDBRANCH   6  28
TORSDOF 7
ENDMDL
MODEL 7
REMARK VINA RESULT:   -11.011      1.791      2.786
REMARK INTER + INTRA:         -14.476
REMARK INTER:                 -13.099
REMARK INTRA:                  -1.377
REMARK CONF_INDEPENDENT:        2.088
REMARK UNBOUND:                -1.377
REMARK SMILES Cc1cn(-c2cc(NC(=O)c3ccc(C)c(Nc4nccc(-c5cccnc5)n4)c3)cc(C(F)(F)F)c2)cn1
REMARK SMILES IDX 11 1 12 2 13 3 14 4 15 5 16 6 30 7 9 8 10 9 8 10 7 12 6 13
REMARK SMILES IDX 31 14 5 15 32 16 37 17 4 18 3 19 38 20 2 21 39 22 1 23 33 24
REMARK SMILES IDX 34 25 35 26 36 27 17 28 18 30 19 31 29 32 20 33 22 34 21 35
REMARK SMILES IDX 23 36 24 37 28 38 25 39 27 40 26 41
REMARK H PARENT 8 11 17 29
ROOT
ATOM      1  C   UNL     1      27.162   2.297  52.607  1.00  0.00     0.042 A 
ATOM      2  C   UNL     1      27.172   0.902  52.465  1.00  0.00     0.014 A 
ATOM      3  C   UNL     1      27.946   0.092  53.298  1.00  0.00     0.006 A 
ATOM      4  C   UNL     1      28.798   0.640  54.243  1.00  0.00    -0.027 A 
ATOM      5  C   UNL     1      29.642  -0.255  55.139  1.00  0.00     0.046 C 
ATOM      6  C   UNL     1      28.870   2.030  54.319  1.00  0.00     0.045 A 
ATOM      7  C   UNL     1      28.067   2.825  53.491  1.00  0.00     0.040 A 
ENDROOT
BRANCH   1   8
ATOM      8  C   UNL     1      26.476   3.233  51.694  1.00  0.00     0.255 C 
ATOM      9  O   UNL     1      26.787   3.144  50.531  1.00  0.00    -0.269 OA
ATOM     10  N   UNL     1      25.423   3.890  52.202  1.00  0.00    -0.322 N 
ATOM     11  H   UNL     1      25.217   3.743  53.200  1.00  0.00     0.170 HD
BRANCH  10  12
ATOM     12  C   UNL     1      24.585   4.751  51.505  1.00  0.00     0.044 A 
ATOM     13  C   UNL     1      23.839   5.747  52.182  1.00  0.00     0.052 A 
ATOM     14  C   UNL     1      24.365   4.576  50.121  1.00  0.00     0.039 A 
ATOM     15  C   UNL     1      23.001   6.625  51.489  1.00  0.00     0.049 A 
ATOM     16  C   UNL     1      23.529   5.485  49.412  1.00  0.00     0.060 A 
ATOM     17  C   UNL     1      22.835   6.472  50.116  1.00  0.00     0.039 A 
BRANCH  15  18
ATOM     18  N   UNL     1      22.290   7.641  52.145  1.00  0.00    -0.306 N 
ATOM     19  C   UNL     1      22.376   9.021  51.973  1.00  0.00     0.116 A 
ATOM     20  C   UNL     1      21.431   7.491  53.159  1.00  0.00     0.204 A 
ATOM     21  C   UNL     1      21.568   9.611  52.881  1.00  0.00     0.056 A 
ATOM     22  N   UNL     1      20.961   8.635  53.592  1.00  0.00    -0.242 NA
ATOM     23  C   UNL     1      21.309  11.086  53.074  1.00  0.00     0.068 C 
ENDBRANCH  15  18
BRANCH  16  24
ATOM     24  C   UNL     1      23.362   5.312  47.938  1.00  0.00     0.416 C 
ATOM     25  F   UNL     1      24.088   6.157  47.179  1.00  0.00    -0.166 F 
ATOM     26  F   UNL     1      23.816   4.128  47.542  1.00  0.00    -0.166 F 
ATOM     27  F   UNL     1      22.094   5.539  47.535  1.00  0.00    -0.166 F 
ENDBRANCH  16  24
ENDBRANCH  10  12
ENDBRANCH   1   8
BRANCH   6  28
ATOM     28  N   UNL     1      29.597   2.603  55.370  1.00  0.00    -0.324 N 
ATOM     29  H   UNL     1      29.126   2.855  56.251  1.00  0.00     0.170 HD
BRANCH  28  30
ATOM     30  C   UNL     1      30.966   2.831  55.215  1.00  0.00     0.227 A 
ATOM     31  N   UNL     1      31.736   3.721  55.827  1.00  0.00    -0.221 NA
ATOM     32  N   UNL     1      31.410   2.010  54.229  1.00  0.00    -0.213 NA
ATOM     33  C   UNL     1      33.030   3.759  55.455  1.00  0.00     0.117 A 
ATOM     34  C   UNL     1      32.696   2.107  53.872  1.00  0.00     0.077 A 
ATOM     35  C   UNL     1      33.525   2.984  54.477  1.00  0.00     0.049 A 
BRANCH  34  36
ATOM     36  C   UNL     1      33.142   1.163  52.814  1.00  0.00     0.019 A 
ATOM     37  C   UNL     1      34.300   1.400  52.056  1.00  0.00     0.013 A 
ATOM     38  C   UNL     1      32.396   0.001  52.531  1.00  0.00     0.121 A 
ATOM     39  C   UNL     1      34.654   0.496  51.063  1.00  0.00     0.021 A 
ATOM     40  N   UNL     1      32.728  -0.870  51.570  1.00  0.00    -0.264 NA
ATOM     41  C   UNL     1      33.854  -0.631  50.878  1.00  0.00     0.111 A 
ENDBRANCH  34  36
ENDBRANCH  28  30
ENDBRANCH   6  28
TORSDOF 7
ENDMDL
MODEL 8
REMARK VINA RESULT:   -10.983      1.722      2.575
REMARK INTER + INTRA:         -14.263
REMARK INTER:                 -13.071
REMARK INTRA:                  -1.192
REMARK CONF_INDEPENDENT:        2.088
REMARK UNBOUND:                -1.192
REMARK SMILES Cc1cn(-c2cc(NC(=O)c3ccc(C)c(Nc4nccc(-c5cccnc5)n4)c3)cc(C(F)(F)F)c2)cn1
REMARK SMILES IDX 11 1 12 2 13 3 14 4 15 5 16 6 30 7 9 8 10 9 8 10 7 12 6 13
REMARK SMILES IDX 31 14 5 15 32 16 37 17 4 18 3 19 38 20 2 21 39 22 1 23 33 24
REMARK SMILES IDX 34 25 35 26 36 27 17 28 18 30 19 31 29 32 20 33 22 34 21 35
REMARK SMILES IDX 23 36 24 37 28 38 25 39 27 40 26 41
REMARK H PARENT 8 11 17 29
ROOT
ATOM      1  C   UNL     1      27.006   2.372  52.497  1.00  0.00     0.042 A 
ATOM      2  C   UNL     1      27.096   1.256  51.650  1.00  0.00     0.014 A 
ATOM      3  C   UNL     1      28.016   0.235  51.888  1.00  0.00     0.006 A 
ATOM      4  C   UNL     1      28.934   0.321  52.922  1.00  0.00    -0.027 A 
ATOM      5  C   UNL     1      29.937  -0.797  53.166  1.00  0.00     0.046 C 
ATOM      6  C   UNL     1      28.919   1.475  53.704  1.00  0.00     0.045 A 
ATOM      7  C   UNL     1      27.971   2.478  53.465  1.00  0.00     0.040 A 
ENDROOT
BRANCH   1   8
ATOM      8  C   UNL     1      26.155   3.552  52.250  1.00  0.00     0.255 C 
ATOM      9  O   UNL     1      26.049   3.882  51.094  1.00  0.00    -0.269 OA
ATOM     10  N   UNL     1      25.405   3.967  53.282  1.00  0.00    -0.322 N 
ATOM     11  H   UNL     1      25.529   3.475  54.178  1.00  0.00     0.170 HD
BRANCH  10  12
ATOM     12  C   UNL     1      24.475   4.999  53.252  1.00  0.00     0.044 A 
ATOM     13  C   UNL     1      23.742   5.351  54.412  1.00  0.00     0.052 A 
ATOM     14  C   UNL     1      24.153   5.640  52.036  1.00  0.00     0.039 A 
ATOM     15  C   UNL     1      22.812   6.394  54.394  1.00  0.00     0.049 A 
ATOM     16  C   UNL     1      23.222   6.717  52.025  1.00  0.00     0.060 A 
ATOM     17  C   UNL     1      22.543   7.052  53.198  1.00  0.00     0.039 A 
BRANCH  15  18
ATOM     18  N   UNL     1      22.111   6.778  55.548  1.00  0.00    -0.306 N 
ATOM     19  C   UNL     1      22.594   6.976  56.840  1.00  0.00     0.116 A 
ATOM     20  C   UNL     1      20.789   6.947  55.663  1.00  0.00     0.204 A 
ATOM     21  C   UNL     1      21.545   7.254  57.644  1.00  0.00     0.056 A 
ATOM     22  N   UNL     1      20.429   7.263  56.883  1.00  0.00    -0.242 NA
ATOM     23  C   UNL     1      21.563   7.562  59.122  1.00  0.00     0.068 C 
ENDBRANCH  15  18
BRANCH  16  24
ATOM     24  C   UNL     1      22.945   7.418  50.734  1.00  0.00     0.416 C 
ATOM     25  F   UNL     1      22.340   8.616  50.855  1.00  0.00    -0.166 F 
ATOM     26  F   UNL     1      24.074   7.741  50.115  1.00  0.00    -0.166 F 
ATOM     27  F   UNL     1      22.104   6.721  49.942  1.00  0.00    -0.166 F 
ENDBRANCH  16  24
ENDBRANCH  10  12
ENDBRANCH   1   8
BRANCH   6  28
ATOM     28  N   UNL     1      29.724   1.515  54.850  1.00  0.00    -0.324 N 
ATOM     29  H   UNL     1      29.359   1.182  55.753  1.00  0.00     0.170 HD
BRANCH  28  30
ATOM     30  C   UNL     1      31.027   2.009  54.758  1.00  0.00     0.227 A 
ATOM     31  N   UNL     1      31.598   2.985  55.451  1.00  0.00    -0.221 NA
ATOM     32  N   UNL     1      31.643   1.356  53.739  1.00  0.00    -0.213 NA
ATOM     33  C   UNL     1      32.868   3.295  55.128  1.00  0.00     0.117 A 
ATOM     34  C   UNL     1      32.894   1.721  53.433  1.00  0.00     0.077 A 
ATOM     35  C   UNL     1      33.525   2.696  54.122  1.00  0.00     0.049 A 
BRANCH  34  36
ATOM     36  C   UNL     1      33.537   0.953  52.335  1.00  0.00     0.019 A 
ATOM     37  C   UNL     1      33.069  -0.314  51.952  1.00  0.00     0.013 A 
ATOM     38  C   UNL     1      34.652   1.478  51.653  1.00  0.00     0.121 A 
ATOM     39  C   UNL     1      33.725  -0.997  50.935  1.00  0.00     0.021 A 
ATOM     40  N   UNL     1      35.293   0.822  50.677  1.00  0.00    -0.264 NA
ATOM     41  C   UNL     1      34.809  -0.378  50.314  1.00  0.00     0.111 A 
ENDBRANCH  34  36
ENDBRANCH  28  30
ENDBRANCH   6  28
TORSDOF 7
ENDMDL
MODEL 9
REMARK VINA RESULT:   -10.905      8.384     15.265
REMARK INTER + INTRA:         -14.293
REMARK INTER:                 -12.993
REMARK INTRA:                  -1.300
REMARK CONF_INDEPENDENT:        2.088
REMARK UNBOUND:                -1.300
REMARK SMILES Cc1cn(-c2cc(NC(=O)c3ccc(C)c(Nc4nccc(-c5cccnc5)n4)c3)cc(C(F)(F)F)c2)cn1
REMARK SMILES IDX 11 1 12 2 13 3 14 4 15 5 16 6 30 7 9 8 10 9 8 10 7 12 6 13
REMARK SMILES IDX 31 14 5 15 32 16 37 17 4 18 3 19 38 20 2 21 39 22 1 23 33 24
REMARK SMILES IDX 34 25 35 26 36 27 17 28 18 30 19 31 29 32 20 33 22 34 21 35
REMARK SMILES IDX 23 36 24 37 28 38 25 39 27 40 26 41
REMARK H PARENT 8 11 17 29
ROOT
ATOM      1  C   UNL     1      36.004  -1.698  49.302  1.00  0.00     0.042 A 
ATOM      2  C   UNL     1      35.208  -2.847  49.188  1.00  0.00     0.014 A 
ATOM      3  C   UNL     1      33.833  -2.806  49.424  1.00  0.00     0.006 A 
ATOM      4  C   UNL     1      33.214  -1.646  49.862  1.00  0.00    -0.027 A 
ATOM      5  C   UNL     1      31.715  -1.618  50.124  1.00  0.00     0.046 C 
ATOM      6  C   UNL     1      34.017  -0.527  50.078  1.00  0.00     0.045 A 
ATOM      7  C   UNL     1      35.391  -0.583  49.811  1.00  0.00     0.040 A 
ENDROOT
BRANCH   1   8
ATOM      8  C   UNL     1      37.476  -1.677  49.196  1.00  0.00     0.255 C 
ATOM      9  O   UNL     1      38.063  -1.331  50.192  1.00  0.00    -0.269 OA
ATOM     10  N   UNL     1      37.999  -2.276  48.115  1.00  0.00    -0.322 N 
ATOM     11  H   UNL     1      37.337  -2.641  47.416  1.00  0.00     0.170 HD
BRANCH  10  12
ATOM     12  C   UNL     1      39.353  -2.447  47.852  1.00  0.00     0.044 A 
ATOM     13  C   UNL     1      39.913  -2.028  46.620  1.00  0.00     0.052 A 
ATOM     14  C   UNL     1      40.176  -3.152  48.757  1.00  0.00     0.039 A 
ATOM     15  C   UNL     1      41.275  -2.187  46.351  1.00  0.00     0.049 A 
ATOM     16  C   UNL     1      41.567  -3.294  48.491  1.00  0.00     0.060 A 
ATOM     17  C   UNL     1      42.085  -2.838  47.276  1.00  0.00     0.039 A 
BRANCH  15  18
ATOM     18  N   UNL     1      41.848  -1.738  45.152  1.00  0.00    -0.306 N 
ATOM     19  C   UNL     1      42.150  -0.435  44.760  1.00  0.00     0.116 A 
ATOM     20  C   UNL     1      42.143  -2.479  44.077  1.00  0.00     0.204 A 
ATOM     21  C   UNL     1      42.609  -0.471  43.490  1.00  0.00     0.056 A 
ATOM     22  N   UNL     1      42.627  -1.763  43.092  1.00  0.00    -0.242 NA
ATOM     23  C   UNL     1      43.081   0.683  42.639  1.00  0.00     0.068 C 
ENDBRANCH  15  18
BRANCH  16  24
ATOM     24  C   UNL     1      42.427  -3.992  49.494  1.00  0.00     0.416 C 
ATOM     25  F   UNL     1      43.741  -3.700  49.421  1.00  0.00    -0.166 F 
ATOM     26  F   UNL     1      42.128  -3.605  50.729  1.00  0.00    -0.166 F 
ATOM     27  F   UNL     1      42.395  -5.333  49.352  1.00  0.00    -0.166 F 
ENDBRANCH  16  24
ENDBRANCH  10  12
ENDBRANCH   1   8
BRANCH   6  28
ATOM     28  N   UNL     1      33.394   0.695  50.363  1.00  0.00    -0.324 N 
ATOM     29  H   UNL     1      33.079   1.308  49.598  1.00  0.00     0.170 HD
BRANCH  28  30
ATOM     30  C   UNL     1      33.205   1.076  51.693  1.00  0.00     0.227 A 
ATOM     31  N   UNL     1      33.896   1.948  52.416  1.00  0.00    -0.221 NA
ATOM     32  N   UNL     1      32.194   0.321  52.197  1.00  0.00    -0.213 NA
ATOM     33  C   UNL     1      33.525   2.097  53.702  1.00  0.00     0.117 A 
ATOM     34  C   UNL     1      31.883   0.482  53.488  1.00  0.00     0.077 A 
ATOM     35  C   UNL     1      32.545   1.370  54.261  1.00  0.00     0.049 A 
BRANCH  34  36
ATOM     36  C   UNL     1      30.748  -0.341  53.983  1.00  0.00     0.019 A 
ATOM     37  C   UNL     1      29.651   0.239  54.641  1.00  0.00     0.013 A 
ATOM     38  C   UNL     1      30.752  -1.739  53.815  1.00  0.00     0.121 A 
ATOM     39  C   UNL     1      28.631  -0.582  55.103  1.00  0.00     0.021 A 
ATOM     40  N   UNL     1      29.775  -2.537  54.266  1.00  0.00    -0.264 NA
ATOM     41  C   UNL     1      28.726  -1.953  54.869  1.00  0.00     0.111 A 
ENDBRANCH  34  36
ENDBRANCH  28  30
ENDBRANCH   6  28
TORSDOF 7
ENDMDL
MODEL 10
REMARK VINA RESULT:   -10.893      3.928     11.664
REMARK INTER + INTRA:         -14.023
REMARK INTER:                 -12.981
REMARK INTRA:                  -1.043
REMARK CONF_INDEPENDENT:        2.088
REMARK UNBOUND:                -1.043
REMARK SMILES Cc1cn(-c2cc(NC(=O)c3ccc(C)c(Nc4nccc(-c5cccnc5)n4)c3)cc(C(F)(F)F)c2)cn1
REMARK SMILES IDX 11 1 12 2 13 3 14 4 15 5 16 6 30 7 9 8 10 9 8 10 7 12 6 13
REMARK SMILES IDX 31 14 5 15 32 16 37 17 4 18 3 19 38 20 2 21 39 22 1 23 33 24
REMARK SMILES IDX 34 25 35 26 36 27 17 28 18 30 19 31 29 32 20 33 22 34 21 35
REMARK SMILES IDX 23 36 24 37 28 38 25 39 27 40 26 41
REMARK H PARENT 8 11 17 29
ROOT
ATOM      1  C   UNL     1      25.728   3.566  51.857  1.00  0.00     0.042 A 
ATOM      2  C   UNL     1      24.813   3.256  50.840  1.00  0.00     0.014 A 
ATOM      3  C   UNL     1      23.478   3.657  50.916  1.00  0.00     0.006 A 
ATOM      4  C   UNL     1      22.985   4.304  52.037  1.00  0.00    -0.027 A 
ATOM      5  C   UNL     1      21.525   4.728  52.110  1.00  0.00     0.046 C 
ATOM      6  C   UNL     1      23.865   4.523  53.096  1.00  0.00     0.045 A 
ATOM      7  C   UNL     1      25.207   4.135  52.990  1.00  0.00     0.040 A 
ENDROOT
BRANCH   1   8
ATOM      8  C   UNL     1      27.118   3.075  51.919  1.00  0.00     0.255 C 
ATOM      9  O   UNL     1      27.722   3.095  50.874  1.00  0.00    -0.269 OA
ATOM     10  N   UNL     1      27.632   2.904  53.146  1.00  0.00    -0.322 N 
ATOM     11  H   UNL     1      27.000   3.063  53.944  1.00  0.00     0.170 HD
BRANCH  10  12
ATOM     12  C   UNL     1      28.938   2.533  53.440  1.00  0.00     0.044 A 
ATOM     13  C   UNL     1      29.598   1.534  52.682  1.00  0.00     0.052 A 
ATOM     14  C   UNL     1      29.595   3.055  54.575  1.00  0.00     0.039 A 
ATOM     15  C   UNL     1      30.915   1.160  52.964  1.00  0.00     0.049 A 
ATOM     16  C   UNL     1      30.944   2.690  54.847  1.00  0.00     0.060 A 
ATOM     17  C   UNL     1      31.568   1.723  54.056  1.00  0.00     0.039 A 
BRANCH  15  18
ATOM     18  N   UNL     1      31.591   0.203  52.193  1.00  0.00    -0.306 N 
ATOM     19  C   UNL     1      32.908   0.217  51.737  1.00  0.00     0.116 A 
ATOM     20  C   UNL     1      31.068  -0.903  51.650  1.00  0.00     0.204 A 
ATOM     21  C   UNL     1      33.097  -0.871  50.959  1.00  0.00     0.056 A 
ATOM     22  N   UNL     1      31.944  -1.576  50.944  1.00  0.00    -0.242 NA
ATOM     23  C   UNL     1      34.361  -1.302  50.256  1.00  0.00     0.068 C 
ENDBRANCH  15  18
BRANCH  16  24
ATOM     24  C   UNL     1      31.635   3.304  56.021  1.00  0.00     0.416 C 
ATOM     25  F   UNL     1      31.022   4.386  56.542  1.00  0.00    -0.166 F 
ATOM     26  F   UNL     1      31.650   2.472  57.055  1.00  0.00    -0.166 F 
ATOM     27  F   UNL     1      32.866   3.762  55.710  1.00  0.00    -0.166 F 
ENDBRANCH  16  24
ENDBRANCH  10  12
ENDBRANCH   1   8
BRANCH   6  28
ATOM     28  N   UNL     1      23.434   5.315  54.168  1.00  0.00    -0.324 N 
ATOM     29  H   UNL     1      22.429   5.430  54.358  1.00  0.00     0.170 HD
BRANCH  28  30
ATOM     30  C   UNL     1      24.380   5.949  54.976  1.00  0.00     0.227 A 
ATOM     31  N   UNL     1      25.687   6.078  54.785  1.00  0.00    -0.221 NA
ATOM     32  N   UNL     1      23.743   6.377  56.097  1.00  0.00    -0.213 NA
ATOM     33  C   UNL     1      26.382   6.704  55.754  1.00  0.00     0.117 A 
ATOM     34  C   UNL     1      24.481   6.965  57.045  1.00  0.00     0.077 A 
ATOM     35  C   UNL     1      25.812   7.136  56.889  1.00  0.00     0.049 A 
BRANCH  34  36
ATOM     36  C   UNL     1      23.732   7.447  58.235  1.00  0.00     0.019 A 
ATOM     37  C   UNL     1      22.331   7.527  58.240  1.00  0.00     0.013 A 
ATOM     38  C   UNL     1      24.419   7.854  59.396  1.00  0.00     0.121 A 
ATOM     39  C   UNL     1      21.685   8.009  59.371  1.00  0.00     0.021 A 
ATOM     40  N   UNL     1      23.803   8.327  60.487  1.00  0.00    -0.264 NA
ATOM     41  C   UNL     1      22.461   8.369  60.473  1.00  0.00     0.111 A 
ENDBRANCH  34  36
ENDBRANCH  28  30
ENDBRANCH   6  28
TORSDOF 7
ENDMDL
MODEL 11
REMARK VINA RESULT:   -10.871      4.584      7.455
REMARK INTER + INTRA:         -13.870
REMARK INTER:                 -12.960
REMARK INTRA:                  -0.911
REMARK CONF_INDEPENDENT:        2.088
REMARK UNBOUND:                -0.911
REMARK SMILES Cc1cn(-c2cc(NC(=O)c3ccc(C)c(Nc4nccc(-c5cccnc5)n4)c3)cc(C(F)(F)F)c2)cn1
REMARK SMILES IDX 11 1 12 2 13 3 14 4 15 5 16 6 30 7 9 8 10 9 8 10 7 12 6 13
REMARK SMILES IDX 31 14 5 15 32 16 37 17 4 18 3 19 38 20 2 21 39 22 1 23 33 24
REMARK SMILES IDX 34 25 35 26 36 27 17 28 18 30 19 31 29 32 20 33 22 34 21 35
REMARK SMILES IDX 23 36 24 37 28 38 25 39 27 40 26 41
REMARK H PARENT 8 11 17 29
ROOT
ATOM      1  C   UNL     1      23.056   5.914  52.537  1.00  0.00     0.042 A 
ATOM      2  C   UNL     1      22.759   5.590  51.205  1.00  0.00     0.014 A 
ATOM      3  C   UNL     1      23.331   4.481  50.581  1.00  0.00     0.006 A 
ATOM      4  C   UNL     1      24.280   3.704  51.227  1.00  0.00    -0.027 A 
ATOM      5  C   UNL     1      24.902   2.501  50.531  1.00  0.00     0.046 C 
ATOM      6  C   UNL     1      24.656   4.081  52.515  1.00  0.00     0.045 A 
ATOM      7  C   UNL     1      24.051   5.183  53.132  1.00  0.00     0.040 A 
ENDROOT
BRANCH   1   8
ATOM      8  C   UNL     1      22.597   7.133  53.231  1.00  0.00     0.255 C 
ATOM      9  O   UNL     1      23.353   8.073  53.182  1.00  0.00    -0.269 OA
ATOM     10  N   UNL     1      21.311   7.148  53.614  1.00  0.00    -0.322 N 
ATOM     11  H   UNL     1      20.766   6.289  53.455  1.00  0.00     0.170 HD
BRANCH  10  12
ATOM     12  C   UNL     1      20.648   8.216  54.205  1.00  0.00     0.044 A 
ATOM     13  C   UNL     1      19.615   8.900  53.518  1.00  0.00     0.052 A 
ATOM     14  C   UNL     1      21.070   8.720  55.455  1.00  0.00     0.039 A 
ATOM     15  C   UNL     1      18.935   9.969  54.108  1.00  0.00     0.049 A 
ATOM     16  C   UNL     1      20.362   9.795  56.064  1.00  0.00     0.060 A 
ATOM     17  C   UNL     1      19.329  10.422  55.364  1.00  0.00     0.039 A 
BRANCH  15  18
ATOM     18  N   UNL     1      17.883  10.627  53.454  1.00  0.00    -0.306 N 
ATOM     19  C   UNL     1      16.685  11.104  53.982  1.00  0.00     0.116 A 
ATOM     20  C   UNL     1      17.773  10.852  52.139  1.00  0.00     0.204 A 
ATOM     21  C   UNL     1      15.938  11.587  52.965  1.00  0.00     0.056 A 
ATOM     22  N   UNL     1      16.650  11.450  51.825  1.00  0.00    -0.242 NA
ATOM     23  C   UNL     1      14.572  12.227  53.038  1.00  0.00     0.068 C 
ENDBRANCH  15  18
BRANCH  16  24
ATOM     24  C   UNL     1      20.792  10.269  57.414  1.00  0.00     0.416 C 
ATOM     25  F   UNL     1      21.213   9.300  58.250  1.00  0.00    -0.166 F 
ATOM     26  F   UNL     1      21.868  11.044  57.327  1.00  0.00    -0.166 F 
ATOM     27  F   UNL     1      19.787  10.857  58.095  1.00  0.00    -0.166 F 
ENDBRANCH  16  24
ENDBRANCH  10  12
ENDBRANCH   1   8
BRANCH   6  28
ATOM     28  N   UNL     1      25.488   3.222  53.245  1.00  0.00    -0.324 N 
ATOM     29  H   UNL     1      25.185   2.862  54.161  1.00  0.00     0.170 HD
BRANCH  28  30
ATOM     30  C   UNL     1      26.730   2.859  52.721  1.00  0.00     0.227 A 
ATOM     31  N   UNL     1      27.421   3.433  51.744  1.00  0.00    -0.221 NA
ATOM     32  N   UNL     1      27.120   1.716  53.341  1.00  0.00    -0.213 NA
ATOM     33  C   UNL     1      28.584   2.847  51.401  1.00  0.00     0.117 A 
ATOM     34  C   UNL     1      28.267   1.153  52.944  1.00  0.00     0.077 A 
ATOM     35  C   UNL     1      29.016   1.709  51.967  1.00  0.00     0.049 A 
BRANCH  34  36
ATOM     36  C   UNL     1      28.667  -0.076  53.677  1.00  0.00     0.019 A 
ATOM     37  C   UNL     1      27.974  -0.510  54.818  1.00  0.00     0.013 A 
ATOM     38  C   UNL     1      29.773  -0.837  53.249  1.00  0.00     0.121 A 
ATOM     39  C   UNL     1      28.409  -1.653  55.478  1.00  0.00     0.021 A 
ATOM     40  N   UNL     1      30.202  -1.934  53.885  1.00  0.00    -0.264 NA
ATOM     41  C   UNL     1      29.505  -2.341  54.959  1.00  0.00     0.111 A 
ENDBRANCH  34  36
ENDBRANCH  28  30
ENDBRANCH   6  28
TORSDOF 7
ENDMDL
MODEL 12
REMARK VINA RESULT:   -10.817      3.642     11.999
REMARK INTER + INTRA:         -14.237
REMARK INTER:                 -12.905
REMARK INTRA:                  -1.331
REMARK CONF_INDEPENDENT:        2.088
REMARK UNBOUND:                -1.331
REMARK SMILES Cc1cn(-c2cc(NC(=O)c3ccc(C)c(Nc4nccc(-c5cccnc5)n4)c3)cc(C(F)(F)F)c2)cn1
REMARK SMILES IDX 11 1 12 2 13 3 14 4 15 5 16 6 30 7 9 8 10 9 8 10 7 12 6 13
REMARK SMILES IDX 31 14 5 15 32 16 37 17 4 18 3 19 38 20 2 21 39 22 1 23 33 24
REMARK SMILES IDX 34 25 35 26 36 27 17 28 18 30 19 31 29 32 20 33 22 34 21 35
REMARK SMILES IDX 23 36 24 37 28 38 25 39 27 40 26 41
REMARK H PARENT 8 11 17 29
ROOT
ATOM      1  C   UNL     1      25.776   3.545  51.887  1.00  0.00     0.042 A 
ATOM      2  C   UNL     1      24.983   3.551  50.729  1.00  0.00     0.014 A 
ATOM      3  C   UNL     1      23.634   3.905  50.774  1.00  0.00     0.006 A 
ATOM      4  C   UNL     1      23.004   4.184  51.977  1.00  0.00    -0.027 A 
ATOM      5  C   UNL     1      21.530   4.561  52.011  1.00  0.00     0.046 C 
ATOM      6  C   UNL     1      23.761   4.078  53.142  1.00  0.00     0.045 A 
ATOM      7  C   UNL     1      25.120   3.745  53.073  1.00  0.00     0.040 A 
ENDROOT
BRANCH   1   8
ATOM      8  C   UNL     1      27.170   3.064  51.952  1.00  0.00     0.255 C 
ATOM      9  O   UNL     1      27.758   3.036  50.898  1.00  0.00    -0.269 OA
ATOM     10  N   UNL     1      27.702   2.955  53.178  1.00  0.00    -0.322 N 
ATOM     11  H   UNL     1      27.080   3.150  53.976  1.00  0.00     0.170 HD
BRANCH  10  12
ATOM     12  C   UNL     1      29.014   2.604  53.471  1.00  0.00     0.044 A 
ATOM     13  C   UNL     1      29.714   1.672  52.665  1.00  0.00     0.052 A 
ATOM     14  C   UNL     1      29.638   3.076  54.646  1.00  0.00     0.039 A 
ATOM     15  C   UNL     1      31.037   1.320  52.945  1.00  0.00     0.049 A 
ATOM     16  C   UNL     1      30.994   2.733  54.918  1.00  0.00     0.060 A 
ATOM     17  C   UNL     1      31.657   1.834  54.080  1.00  0.00     0.039 A 
BRANCH  15  18
ATOM     18  N   UNL     1      31.753   0.431  52.130  1.00  0.00    -0.306 N 
ATOM     19  C   UNL     1      31.301  -0.320  51.046  1.00  0.00     0.116 A 
ATOM     20  C   UNL     1      33.024   0.045  52.288  1.00  0.00     0.204 A 
ATOM     21  C   UNL     1      32.318  -1.100  50.620  1.00  0.00     0.056 A 
ATOM     22  N   UNL     1      33.397  -0.833  51.389  1.00  0.00    -0.242 NA
ATOM     23  C   UNL     1      32.323  -2.072  49.464  1.00  0.00     0.068 C 
ENDBRANCH  15  18
BRANCH  16  24
ATOM     24  C   UNL     1      31.649   3.295  56.137  1.00  0.00     0.416 C 
ATOM     25  F   UNL     1      31.654   2.478  57.209  1.00  0.00    -0.166 F 
ATOM     26  F   UNL     1      32.947   3.491  55.934  1.00  0.00    -0.166 F 
ATOM     27  F   UNL     1      31.026   4.402  56.591  1.00  0.00    -0.166 F 
ENDBRANCH  16  24
ENDBRANCH  10  12
ENDBRANCH   1   8
BRANCH   6  28
ATOM     28  N   UNL     1      23.193   4.510  54.348  1.00  0.00    -0.324 N 
ATOM     29  H   UNL     1      22.590   3.879  54.894  1.00  0.00     0.170 HD
BRANCH  28  30
ATOM     30  C   UNL     1      23.450   5.805  54.803  1.00  0.00     0.227 A 
ATOM     31  N   UNL     1      24.429   6.231  55.591  1.00  0.00    -0.221 NA
ATOM     32  N   UNL     1      22.448   6.605  54.356  1.00  0.00    -0.213 NA
ATOM     33  C   UNL     1      24.420   7.538  55.915  1.00  0.00     0.117 A 
ATOM     34  C   UNL     1      22.464   7.890  54.731  1.00  0.00     0.077 A 
ATOM     35  C   UNL     1      23.449   8.375  55.518  1.00  0.00     0.049 A 
BRANCH  34  36
ATOM     36  C   UNL     1      21.366   8.731  54.188  1.00  0.00     0.019 A 
ATOM     37  C   UNL     1      20.018   8.365  54.333  1.00  0.00     0.013 A 
ATOM     38  C   UNL     1      21.654   9.922  53.493  1.00  0.00     0.121 A 
ATOM     39  C   UNL     1      19.035   9.178  53.783  1.00  0.00     0.021 A 
ATOM     40  N   UNL     1      20.711  10.705  52.954  1.00  0.00    -0.264 NA
ATOM     41  C   UNL     1      19.430  10.345  53.130  1.00  0.00     0.111 A 
ENDBRANCH  34  36
ENDBRANCH  28  30
ENDBRANCH   6  28
TORSDOF 7
ENDMDL
MODEL 13
REMARK VINA RESULT:   -10.803      4.658     13.501
REMARK INTER + INTRA:         -14.216
REMARK INTER:                 -12.891
REMARK INTRA:                  -1.325
REMARK CONF_INDEPENDENT:        2.088
REMARK UNBOUND:                -1.325
REMARK SMILES Cc1cn(-c2cc(NC(=O)c3ccc(C)c(Nc4nccc(-c5cccnc5)n4)c3)cc(C(F)(F)F)c2)cn1
REMARK SMILES IDX 11 1 12 2 13 3 14 4 15 5 16 6 30 7 9 8 10 9 8 10 7 12 6 13
REMARK SMILES IDX 31 14 5 15 32 16 37 17 4 18 3 19 38 20 2 21 39 22 1 23 33 24
REMARK SMILES IDX 34 25 35 26 36 27 17 28 18 30 19 31 29 32 20 33 22 34 21 35
REMARK SMILES IDX 23 36 24 37 28 38 25 39 27 40 26 41
REMARK H PARENT 8 11 17 29
ROOT
ATOM      1  C   UNL     1      21.121   7.364  54.286  1.00  0.00     0.042 A 
ATOM      2  C   UNL     1      21.042   7.574  55.671  1.00  0.00     0.014 A 
ATOM      3  C   UNL     1      20.326   8.647  56.204  1.00  0.00     0.006 A 
ATOM      4  C   UNL     1      19.735   9.595  55.384  1.00  0.00    -0.027 A 
ATOM      5  C   UNL     1      18.964  10.764  55.979  1.00  0.00     0.046 C 
ATOM      6  C   UNL     1      19.898   9.449  54.007  1.00  0.00     0.045 A 
ATOM      7  C   UNL     1      20.598   8.352  53.491  1.00  0.00     0.040 A 
ENDROOT
BRANCH   1   8
ATOM      8  C   UNL     1      21.956   6.336  53.635  1.00  0.00     0.255 C 
ATOM      9  O   UNL     1      21.906   5.237  54.131  1.00  0.00    -0.269 OA
ATOM     10  N   UNL     1      22.469   6.660  52.438  1.00  0.00    -0.322 N 
ATOM     11  H   UNL     1      22.298   7.618  52.101  1.00  0.00     0.170 HD
BRANCH  10  12
ATOM     12  C   UNL     1      23.211   5.823  51.614  1.00  0.00     0.044 A 
ATOM     13  C   UNL     1      24.307   5.085  52.125  1.00  0.00     0.052 A 
ATOM     14  C   UNL     1      22.964   5.781  50.225  1.00  0.00     0.039 A 
ATOM     15  C   UNL     1      25.053   4.233  51.306  1.00  0.00     0.049 A 
ATOM     16  C   UNL     1      23.710   4.896  49.396  1.00  0.00     0.060 A 
ATOM     17  C   UNL     1      24.764   4.163  49.947  1.00  0.00     0.039 A 
BRANCH  15  18
ATOM     18  N   UNL     1      26.114   3.466  51.811  1.00  0.00    -0.306 N 
ATOM     19  C   UNL     1      26.486   3.251  53.136  1.00  0.00     0.116 A 
ATOM     20  C   UNL     1      27.061   2.843  51.100  1.00  0.00     0.204 A 
ATOM     21  C   UNL     1      27.620   2.517  53.143  1.00  0.00     0.056 A 
ATOM     22  N   UNL     1      27.945   2.244  51.860  1.00  0.00    -0.242 NA
ATOM     23  C   UNL     1      28.395   2.015  54.337  1.00  0.00     0.068 C 
ENDBRANCH  15  18
BRANCH  16  24
ATOM     24  C   UNL     1      23.388   4.827  47.939  1.00  0.00     0.416 C 
ATOM     25  F   UNL     1      24.193   5.558  47.142  1.00  0.00    -0.166 F 
ATOM     26  F   UNL     1      23.573   3.600  47.466  1.00  0.00    -0.166 F 
ATOM     27  F   UNL     1      22.157   5.305  47.663  1.00  0.00    -0.166 F 
ENDBRANCH  16  24
ENDBRANCH  10  12
ENDBRANCH   1   8
BRANCH   6  28
ATOM     28  N   UNL     1      19.177  10.298  53.157  1.00  0.00    -0.324 N 
ATOM     29  H   UNL     1      19.666  10.856  52.443  1.00  0.00     0.170 HD
BRANCH  28  30
ATOM     30  C   UNL     1      17.789  10.381  53.285  1.00  0.00     0.227 A 
ATOM     31  N   UNL     1      17.022  11.462  53.351  1.00  0.00    -0.221 NA
ATOM     32  N   UNL     1      17.311   9.117  53.418  1.00  0.00    -0.213 NA
ATOM     33  C   UNL     1      15.702  11.258  53.521  1.00  0.00     0.117 A 
ATOM     34  C   UNL     1      15.997   8.966  53.617  1.00  0.00     0.077 A 
ATOM     35  C   UNL     1      15.172  10.034  53.674  1.00  0.00     0.049 A 
BRANCH  34  36
ATOM     36  C   UNL     1      15.519   7.562  53.721  1.00  0.00     0.019 A 
ATOM     37  C   UNL     1      14.696   7.142  54.779  1.00  0.00     0.013 A 
ATOM     38  C   UNL     1      15.897   6.605  52.760  1.00  0.00     0.121 A 
ATOM     39  C   UNL     1      14.302   5.812  54.838  1.00  0.00     0.021 A 
ATOM     40  N   UNL     1      15.526   5.320  52.816  1.00  0.00    -0.264 NA
ATOM     41  C   UNL     1      14.719   4.951  53.824  1.00  0.00     0.111 A 
ENDBRANCH  34  36
ENDBRANCH  28  30
ENDBRANCH   6  28
TORSDOF 7
ENDMDL
MODEL 14
REMARK VINA RESULT:   -10.700      6.743     14.718
REMARK INTER + INTRA:         -13.756
REMARK INTER:                 -12.788
REMARK INTRA:                  -0.968
REMARK CONF_INDEPENDENT:        2.088
REMARK UNBOUND:                -0.968
REMARK SMILES Cc1cn(-c2cc(NC(=O)c3ccc(C)c(Nc4nccc(-c5cccnc5)n4)c3)cc(C(F)(F)F)c2)cn1
REMARK SMILES IDX 11 1 12 2 13 3 14 4 15 5 16 6 30 7 9 8 10 9 8 10 7 12 6 13
REMARK SMILES IDX 31 14 5 15 32 16 37 17 4 18 3 19 38 20 2 21 39 22 1 23 33 24
REMARK SMILES IDX 34 25 35 26 36 27 17 28 18 30 19 31 29 32 20 33 22 34 21 35
REMARK SMILES IDX 23 36 24 37 28 38 25 39 27 40 26 41
REMARK H PARENT 8 11 17 29
ROOT
ATOM      1  C   UNL     1      35.599  -1.222  49.709  1.00  0.00     0.042 A 
ATOM      2  C   UNL     1      34.815  -2.149  49.006  1.00  0.00     0.014 A 
ATOM      3  C   UNL     1      33.423  -2.141  49.098  1.00  0.00     0.006 A 
ATOM      4  C   UNL     1      32.764  -1.270  49.951  1.00  0.00    -0.027 A 
ATOM      5  C   UNL     1      31.245  -1.278  50.047  1.00  0.00     0.046 C 
ATOM      6  C   UNL     1      33.543  -0.416  50.730  1.00  0.00     0.045 A 
ATOM      7  C   UNL     1      34.938  -0.423  50.605  1.00  0.00     0.040 A 
ENDROOT
BRANCH   1   8
ATOM      8  C   UNL     1      37.074  -1.239  49.770  1.00  0.00     0.255 C 
ATOM      9  O   UNL     1      37.558  -0.737  50.755  1.00  0.00    -0.269 OA
ATOM     10  N   UNL     1      37.694  -2.018  48.871  1.00  0.00    -0.322 N 
ATOM     11  H   UNL     1      37.102  -2.487  48.171  1.00  0.00     0.170 HD
BRANCH  10  12
ATOM     12  C   UNL     1      39.062  -2.249  48.797  1.00  0.00     0.044 A 
ATOM     13  C   UNL     1      39.838  -2.400  49.973  1.00  0.00     0.052 A 
ATOM     14  C   UNL     1      39.730  -2.218  47.553  1.00  0.00     0.039 A 
ATOM     15  C   UNL     1      41.213  -2.642  49.909  1.00  0.00     0.049 A 
ATOM     16  C   UNL     1      41.126  -2.488  47.489  1.00  0.00     0.060 A 
ATOM     17  C   UNL     1      41.849  -2.661  48.672  1.00  0.00     0.039 A 
BRANCH  15  18
ATOM     18  N   UNL     1      41.983  -2.835  51.066  1.00  0.00    -0.306 N 
ATOM     19  C   UNL     1      41.875  -3.832  52.034  1.00  0.00     0.116 A 
ATOM     20  C   UNL     1      42.943  -2.027  51.533  1.00  0.00     0.204 A 
ATOM     21  C   UNL     1      42.770  -3.569  53.012  1.00  0.00     0.056 A 
ATOM     22  N   UNL     1      43.451  -2.454  52.664  1.00  0.00    -0.242 NA
ATOM     23  C   UNL     1      43.042  -4.371  54.261  1.00  0.00     0.068 C 
ENDBRANCH  15  18
BRANCH  16  24
ATOM     24  C   UNL     1      41.796  -2.509  46.153  1.00  0.00     0.416 C 
ATOM     25  F   UNL     1      41.233  -1.715  45.221  1.00  0.00    -0.166 F 
ATOM     26  F   UNL     1      43.027  -2.015  46.228  1.00  0.00    -0.166 F 
ATOM     27  F   UNL     1      41.765  -3.731  45.583  1.00  0.00    -0.166 F 
ENDBRANCH  16  24
ENDBRANCH  10  12
ENDBRANCH   1   8
BRANCH   6  28
ATOM     28  N   UNL     1      32.899   0.580  51.476  1.00  0.00    -0.324 N 
ATOM     29  H   UNL     1      33.152   1.570  51.347  1.00  0.00     0.170 HD
BRANCH  28  30
ATOM     30  C   UNL     1      31.911   0.219  52.394  1.00  0.00     0.227 A 
ATOM     31  N   UNL     1      31.945  -0.726  53.326  1.00  0.00    -0.221 NA
ATOM     32  N   UNL     1      30.811   0.971  52.132  1.00  0.00    -0.213 NA
ATOM     33  C   UNL     1      30.827  -0.896  54.056  1.00  0.00     0.117 A 
ATOM     34  C   UNL     1      29.713   0.743  52.863  1.00  0.00     0.077 A 
ATOM     35  C   UNL     1      29.704  -0.195  53.834  1.00  0.00     0.049 A 
BRANCH  34  36
ATOM     36  C   UNL     1      28.548   1.615  52.561  1.00  0.00     0.019 A 
ATOM     37  C   UNL     1      27.504   1.793  53.483  1.00  0.00     0.013 A 
ATOM     38  C   UNL     1      28.454   2.280  51.322  1.00  0.00     0.121 A 
ATOM     39  C   UNL     1      26.428   2.599  53.136  1.00  0.00     0.021 A 
ATOM     40  N   UNL     1      27.415   3.052  50.980  1.00  0.00    -0.264 NA
ATOM     41  C   UNL     1      26.443   3.225  51.890  1.00  0.00     0.111 A 
ENDBRANCH  34  36
ENDBRANCH  28  30
ENDBRANCH   6  28
TORSDOF 7
ENDMDL
MODEL 15
REMARK VINA RESULT:   -10.596      5.715     10.847
REMARK INTER + INTRA:         -13.754
REMARK INTER:                 -12.684
REMARK INTRA:                  -1.070
REMARK CONF_INDEPENDENT:        2.088
REMARK UNBOUND:                -1.070
REMARK SMILES Cc1cn(-c2cc(NC(=O)c3ccc(C)c(Nc4nccc(-c5cccnc5)n4)c3)cc(C(F)(F)F)c2)cn1
REMARK SMILES IDX 11 1 12 2 13 3 14 4 15 5 16 6 30 7 9 8 10 9 8 10 7 12 6 13
REMARK SMILES IDX 31 14 5 15 32 16 37 17 4 18 3 19 38 20 2 21 39 22 1 23 33 24
REMARK SMILES IDX 34 25 35 26 36 27 17 28 18 30 19 31 29 32 20 33 22 34 21 35
REMARK SMILES IDX 23 36 24 37 28 38 25 39 27 40 26 41
REMARK H PARENT 8 11 17 29
ROOT
ATOM      1  C   UNL     1      22.325   6.468  55.237  1.00  0.00     0.042 A 
ATOM      2  C   UNL     1      21.583   7.599  54.864  1.00  0.00     0.014 A 
ATOM      3  C   UNL     1      21.117   8.508  55.814  1.00  0.00     0.006 A 
ATOM      4  C   UNL     1      21.296   8.286  57.170  1.00  0.00    -0.027 A 
ATOM      5  C   UNL     1      20.775   9.282  58.196  1.00  0.00     0.046 C 
ATOM      6  C   UNL     1      21.942   7.111  57.552  1.00  0.00     0.045 A 
ATOM      7  C   UNL     1      22.424   6.224  56.582  1.00  0.00     0.040 A 
ENDROOT
BRANCH   1   8
ATOM      8  C   UNL     1      22.746   5.395  54.315  1.00  0.00     0.255 C 
ATOM      9  O   UNL     1      21.857   4.697  53.891  1.00  0.00    -0.269 OA
ATOM     10  N   UNL     1      24.005   5.466  53.859  1.00  0.00    -0.322 N 
ATOM     11  H   UNL     1      24.597   6.221  54.236  1.00  0.00     0.170 HD
BRANCH  10  12
ATOM     12  C   UNL     1      24.585   4.616  52.925  1.00  0.00     0.044 A 
ATOM     13  C   UNL     1      23.851   4.163  51.801  1.00  0.00     0.052 A 
ATOM     14  C   UNL     1      25.877   4.089  53.139  1.00  0.00     0.039 A 
ATOM     15  C   UNL     1      24.429   3.316  50.851  1.00  0.00     0.049 A 
ATOM     16  C   UNL     1      26.471   3.244  52.159  1.00  0.00     0.060 A 
ATOM     17  C   UNL     1      25.723   2.845  51.050  1.00  0.00     0.039 A 
BRANCH  15  18
ATOM     18  N   UNL     1      23.725   2.895  49.713  1.00  0.00    -0.306 N 
ATOM     19  C   UNL     1      22.904   1.780  49.553  1.00  0.00     0.116 A 
ATOM     20  C   UNL     1      23.773   3.443  48.493  1.00  0.00     0.204 A 
ATOM     21  C   UNL     1      22.508   1.729  48.262  1.00  0.00     0.056 A 
ATOM     22  N   UNL     1      23.037   2.796  47.623  1.00  0.00    -0.242 NA
ATOM     23  C   UNL     1      21.598   0.717  47.610  1.00  0.00     0.068 C 
ENDBRANCH  15  18
BRANCH  16  24
ATOM     24  C   UNL     1      27.863   2.748  52.383  1.00  0.00     0.416 C 
ATOM     25  F   UNL     1      28.024   1.417  52.243  1.00  0.00    -0.166 F 
ATOM     26  F   UNL     1      28.692   3.223  51.460  1.00  0.00    -0.166 F 
ATOM     27  F   UNL     1      28.297   2.986  53.638  1.00  0.00    -0.166 F 
ENDBRANCH  16  24
ENDBRANCH  10  12
ENDBRANCH   1   8
BRANCH   6  28
ATOM     28  N   UNL     1      22.278   6.943  58.902  1.00  0.00    -0.324 N 
ATOM     29  H   UNL     1      21.802   6.228  59.470  1.00  0.00     0.170 HD
BRANCH  28  30
ATOM     30  C   UNL     1      23.263   7.753  59.470  1.00  0.00     0.227 A 
ATOM     31  N   UNL     1      23.368   9.076  59.447  1.00  0.00    -0.221 NA
ATOM     32  N   UNL     1      24.199   6.938  60.020  1.00  0.00    -0.213 NA
ATOM     33  C   UNL     1      24.452   9.607  60.043  1.00  0.00     0.117 A 
ATOM     34  C   UNL     1      25.275   7.511  60.573  1.00  0.00     0.077 A 
ATOM     35  C   UNL     1      25.419   8.853  60.591  1.00  0.00     0.049 A 
BRANCH  34  36
ATOM     36  C   UNL     1      26.252   6.578  61.192  1.00  0.00     0.019 A 
ATOM     37  C   UNL     1      26.062   6.065  62.485  1.00  0.00     0.013 A 
ATOM     38  C   UNL     1      27.415   6.194  60.495  1.00  0.00     0.121 A 
ATOM     39  C   UNL     1      27.021   5.217  63.023  1.00  0.00     0.021 A 
ATOM     40  N   UNL     1      28.347   5.383  61.011  1.00  0.00    -0.264 NA
ATOM     41  C   UNL     1      28.127   4.887  62.240  1.00  0.00     0.111 A 
ENDBRANCH  34  36
ENDBRANCH  28  30
ENDBRANCH   6  28
TORSDOF 7
ENDMDL
MODEL 16
REMARK VINA RESULT:   -10.544      8.271     14.940
REMARK INTER + INTRA:         -13.989
REMARK INTER:                 -12.632
REMARK INTRA:                  -1.357
REMARK CONF_INDEPENDENT:        2.088
REMARK UNBOUND:                -1.357
REMARK SMILES Cc1cn(-c2cc(NC(=O)c3ccc(C)c(Nc4nccc(-c5cccnc5)n4)c3)cc(C(F)(F)F)c2)cn1
REMARK SMILES IDX 11 1 12 2 13 3 14 4 15 5 16 6 30 7 9 8 10 9 8 10 7 12 6 13
REMARK SMILES IDX 31 14 5 15 32 16 37 17 4 18 3 19 38 20 2 21 39 22 1 23 33 24
REMARK SMILES IDX 34 25 35 26 36 27 17 28 18 30 19 31 29 32 20 33 22 34 21 35
REMARK SMILES IDX 23 36 24 37 28 38 25 39 27 40 26 41
REMARK H PARENT 8 11 17 29
ROOT
ATOM      1  C   UNL     1      36.134  -1.577  49.544  1.00  0.00     0.042 A 
ATOM      2  C   UNL     1      35.450  -2.778  49.304  1.00  0.00     0.014 A 
ATOM      3  C   UNL     1      34.058  -2.851  49.387  1.00  0.00     0.006 A 
ATOM      4  C   UNL     1      33.305  -1.760  49.791  1.00  0.00    -0.027 A 
ATOM      5  C   UNL     1      31.788  -1.856  49.884  1.00  0.00     0.046 C 
ATOM      6  C   UNL     1      33.987  -0.593  50.130  1.00  0.00     0.045 A 
ATOM      7  C   UNL     1      35.382  -0.533  50.016  1.00  0.00     0.040 A 
ENDROOT
BRANCH   1   8
ATOM      8  C   UNL     1      37.603  -1.441  49.602  1.00  0.00     0.255 C 
ATOM      9  O   UNL     1      38.016  -0.625  50.389  1.00  0.00    -0.269 OA
ATOM     10  N   UNL     1      38.311  -2.393  48.977  1.00  0.00    -0.322 N 
ATOM     11  H   UNL     1      37.779  -3.102  48.452  1.00  0.00     0.170 HD
BRANCH  10  12
ATOM     12  C   UNL     1      39.695  -2.510  48.972  1.00  0.00     0.044 A 
ATOM     13  C   UNL     1      40.429  -2.510  50.184  1.00  0.00     0.052 A 
ATOM     14  C   UNL     1      40.411  -2.510  47.755  1.00  0.00     0.039 A 
ATOM     15  C   UNL     1      41.821  -2.637  50.189  1.00  0.00     0.049 A 
ATOM     16  C   UNL     1      41.827  -2.661  47.763  1.00  0.00     0.060 A 
ATOM     17  C   UNL     1      42.509  -2.688  48.981  1.00  0.00     0.039 A 
BRANCH  15  18
ATOM     18  N   UNL     1      42.553  -2.680  51.385  1.00  0.00    -0.306 N 
ATOM     19  C   UNL     1      42.593  -3.684  52.352  1.00  0.00     0.116 A 
ATOM     20  C   UNL     1      43.310  -1.703  51.897  1.00  0.00     0.204 A 
ATOM     21  C   UNL     1      43.367  -3.256  53.373  1.00  0.00     0.056 A 
ATOM     22  N   UNL     1      43.833  -2.027  53.055  1.00  0.00    -0.242 NA
ATOM     23  C   UNL     1      43.727  -3.995  54.639  1.00  0.00     0.068 C 
ENDBRANCH  15  18
BRANCH  16  24
ATOM     24  C   UNL     1      42.554  -2.719  46.458  1.00  0.00     0.416 C 
ATOM     25  F   UNL     1      43.468  -3.704  46.359  1.00  0.00    -0.166 F 
ATOM     26  F   UNL     1      41.725  -3.011  45.463  1.00  0.00    -0.166 F 
ATOM     27  F   UNL     1      43.271  -1.601  46.221  1.00  0.00    -0.166 F 
ENDBRANCH  16  24
ENDBRANCH  10  12
ENDBRANCH   1   8
BRANCH   6  28
ATOM     28  N   UNL     1      33.242   0.565  50.383  1.00  0.00    -0.324 N 
ATOM     29  H   UNL     1      32.839   1.104  49.603  1.00  0.00     0.170 HD
BRANCH  28  30
ATOM     30  C   UNL     1      33.049   0.984  51.701  1.00  0.00     0.227 A 
ATOM     31  N   UNL     1      33.725   1.893  52.393  1.00  0.00    -0.221 NA
ATOM     32  N   UNL     1      32.056   0.227  52.233  1.00  0.00    -0.213 NA
ATOM     33  C   UNL     1      33.357   2.075  53.675  1.00  0.00     0.117 A 
ATOM     34  C   UNL     1      31.747   0.422  53.520  1.00  0.00     0.077 A 
ATOM     35  C   UNL     1      32.393   1.347  54.261  1.00  0.00     0.049 A 
BRANCH  34  36
ATOM     36  C   UNL     1      30.630  -0.407  54.045  1.00  0.00     0.019 A 
ATOM     37  C   UNL     1      29.491   0.176  54.624  1.00  0.00     0.013 A 
ATOM     38  C   UNL     1      30.695  -1.813  53.988  1.00  0.00     0.121 A 
ATOM     39  C   UNL     1      28.490  -0.649  55.120  1.00  0.00     0.021 A 
ATOM     40  N   UNL     1      29.736  -2.613  54.473  1.00  0.00    -0.264 NA
ATOM     41  C   UNL     1      28.647  -2.029  54.997  1.00  0.00     0.111 A 
ENDBRANCH  34  36
ENDBRANCH  28  30
ENDBRANCH   6  28
TORSDOF 7
ENDMDL
MODEL 17
REMARK VINA RESULT:   -10.357      3.995     10.977
REMARK INTER + INTRA:         -13.910
REMARK INTER:                 -12.445
REMARK INTRA:                  -1.465
REMARK CONF_INDEPENDENT:        2.088
REMARK UNBOUND:                -1.465
REMARK SMILES Cc1cn(-c2cc(NC(=O)c3ccc(C)c(Nc4nccc(-c5cccnc5)n4)c3)cc(C(F)(F)F)c2)cn1
REMARK SMILES IDX 11 1 12 2 13 3 14 4 15 5 16 6 30 7 9 8 10 9 8 10 7 12 6 13
REMARK SMILES IDX 31 14 5 15 32 16 37 17 4 18 3 19 38 20 2 21 39 22 1 23 33 24
REMARK SMILES IDX 34 25 35 26 36 27 17 28 18 30 19 31 29 32 20 33 22 34 21 35
REMARK SMILES IDX 23 36 24 37 28 38 25 39 27 40 26 41
REMARK H PARENT 8 11 17 29
ROOT
ATOM      1  C   UNL     1      25.576   3.809  51.888  1.00  0.00     0.042 A 
ATOM      2  C   UNL     1      24.874   4.089  50.706  1.00  0.00     0.014 A 
ATOM      3  C   UNL     1      23.549   4.527  50.733  1.00  0.00     0.006 A 
ATOM      4  C   UNL     1      22.849   4.623  51.925  1.00  0.00    -0.027 A 
ATOM      5  C   UNL     1      21.402   5.095  51.939  1.00  0.00     0.046 C 
ATOM      6  C   UNL     1      23.508   4.246  53.094  1.00  0.00     0.045 A 
ATOM      7  C   UNL     1      24.846   3.833  53.047  1.00  0.00     0.040 A 
ENDROOT
BRANCH   1   8
ATOM      8  C   UNL     1      26.930   3.223  51.946  1.00  0.00     0.255 C 
ATOM      9  O   UNL     1      27.474   3.069  50.880  1.00  0.00    -0.269 OA
ATOM     10  N   UNL     1      27.497   3.164  53.160  1.00  0.00    -0.322 N 
ATOM     11  H   UNL     1      26.923   3.468  53.960  1.00  0.00     0.170 HD
BRANCH  10  12
ATOM     12  C   UNL     1      28.787   2.731  53.438  1.00  0.00     0.044 A 
ATOM     13  C   UNL     1      29.398   1.719  52.657  1.00  0.00     0.052 A 
ATOM     14  C   UNL     1      29.473   3.203  54.578  1.00  0.00     0.039 A 
ATOM     15  C   UNL     1      30.700   1.284  52.922  1.00  0.00     0.049 A 
ATOM     16  C   UNL     1      30.807   2.775  54.834  1.00  0.00     0.060 A 
ATOM     17  C   UNL     1      31.383   1.797  54.020  1.00  0.00     0.039 A 
BRANCH  15  18
ATOM     18  N   UNL     1      31.329   0.313  52.129  1.00  0.00    -0.306 N 
ATOM     19  C   UNL     1      32.509   0.413  51.394  1.00  0.00     0.116 A 
ATOM     20  C   UNL     1      30.865  -0.908  51.838  1.00  0.00     0.204 A 
ATOM     21  C   UNL     1      32.683  -0.742  50.716  1.00  0.00     0.056 A 
ATOM     22  N   UNL     1      31.661  -1.568  51.033  1.00  0.00    -0.242 NA
ATOM     23  C   UNL     1      33.823  -1.119  49.801  1.00  0.00     0.068 C 
ENDBRANCH  15  18
BRANCH  16  24
ATOM     24  C   UNL     1      31.531   3.336  56.014  1.00  0.00     0.416 C 
ATOM     25  F   UNL     1      31.650   2.497  57.062  1.00  0.00    -0.166 F 
ATOM     26  F   UNL     1      32.801   3.589  55.719  1.00  0.00    -0.166 F 
ATOM     27  F   UNL     1      30.902   4.407  56.541  1.00  0.00    -0.166 F 
ENDBRANCH  16  24
ENDBRANCH  10  12
ENDBRANCH   1   8
BRANCH   6  28
ATOM     28  N   UNL     1      22.879   4.487  54.322  1.00  0.00    -0.324 N 
ATOM     29  H   UNL     1      22.380   3.729  54.807  1.00  0.00     0.170 HD
BRANCH  28  30
ATOM     30  C   UNL     1      22.933   5.765  54.882  1.00  0.00     0.227 A 
ATOM     31  N   UNL     1      22.100   6.784  54.713  1.00  0.00    -0.221 NA
ATOM     32  N   UNL     1      24.075   5.847  55.612  1.00  0.00    -0.213 NA
ATOM     33  C   UNL     1      22.412   7.933  55.343  1.00  0.00     0.117 A 
ATOM     34  C   UNL     1      24.359   7.018  56.193  1.00  0.00     0.077 A 
ATOM     35  C   UNL     1      23.533   8.079  56.066  1.00  0.00     0.049 A 
BRANCH  34  36
ATOM     36  C   UNL     1      25.601   7.046  57.009  1.00  0.00     0.019 A 
ATOM     37  C   UNL     1      25.611   7.559  58.316  1.00  0.00     0.013 A 
ATOM     38  C   UNL     1      26.815   6.566  56.481  1.00  0.00     0.121 A 
ATOM     39  C   UNL     1      26.806   7.583  59.023  1.00  0.00     0.021 A 
ATOM     40  N   UNL     1      27.972   6.593  57.154  1.00  0.00    -0.264 NA
ATOM     41  C   UNL     1      27.948   7.066  58.411  1.00  0.00     0.111 A 
ENDBRANCH  34  36
ENDBRANCH  28  30
ENDBRANCH   6  28
TORSDOF 7
ENDMDL
MODEL 18
REMARK VINA RESULT:   -10.352      8.391     14.428
REMARK INTER + INTRA:         -13.701
REMARK INTER:                 -12.440
REMARK INTRA:                  -1.261
REMARK CONF_INDEPENDENT:        2.088
REMARK UNBOUND:                -1.261
REMARK SMILES Cc1cn(-c2cc(NC(=O)c3ccc(C)c(Nc4nccc(-c5cccnc5)n4)c3)cc(C(F)(F)F)c2)cn1
REMARK SMILES IDX 11 1 12 2 13 3 14 4 15 5 16 6 30 7 9 8 10 9 8 10 7 12 6 13
REMARK SMILES IDX 31 14 5 15 32 16 37 17 4 18 3 19 38 20 2 21 39 22 1 23 33 24
REMARK SMILES IDX 34 25 35 26 36 27 17 28 18 30 19 31 29 32 20 33 22 34 21 35
REMARK SMILES IDX 23 36 24 37 28 38 25 39 27 40 26 41
REMARK H PARENT 8 11 17 29
ROOT
ATOM      1  C   UNL     1      35.887  -1.919  49.428  1.00  0.00     0.042 A 
ATOM      2  C   UNL     1      35.006  -3.004  49.306  1.00  0.00     0.014 A 
ATOM      3  C   UNL     1      33.633  -2.853  49.505  1.00  0.00     0.006 A 
ATOM      4  C   UNL     1      33.096  -1.643  49.914  1.00  0.00    -0.027 A 
ATOM      5  C   UNL     1      31.597  -1.494  50.135  1.00  0.00     0.046 C 
ATOM      6  C   UNL     1      33.978  -0.587  50.138  1.00  0.00     0.045 A 
ATOM      7  C   UNL     1      35.349  -0.752  49.908  1.00  0.00     0.040 A 
ENDROOT
BRANCH   1   8
ATOM      8  C   UNL     1      37.358  -2.014  49.360  1.00  0.00     0.255 C 
ATOM      9  O   UNL     1      37.790  -2.764  48.519  1.00  0.00    -0.269 OA
ATOM     10  N   UNL     1      38.043  -1.090  50.049  1.00  0.00    -0.322 N 
ATOM     11  H   UNL     1      37.496  -0.432  50.622  1.00  0.00     0.170 HD
BRANCH  10  12
ATOM     12  C   UNL     1      39.424  -0.939  50.062  1.00  0.00     0.044 A 
ATOM     13  C   UNL     1      40.033   0.234  49.551  1.00  0.00     0.052 A 
ATOM     14  C   UNL     1      40.259  -2.001  50.473  1.00  0.00     0.039 A 
ATOM     15  C   UNL     1      41.420   0.399  49.569  1.00  0.00     0.049 A 
ATOM     16  C   UNL     1      41.671  -1.823  50.511  1.00  0.00     0.060 A 
ATOM     17  C   UNL     1      42.228  -0.637  50.026  1.00  0.00     0.039 A 
BRANCH  15  18
ATOM     18  N   UNL     1      42.030   1.575  49.104  1.00  0.00    -0.306 N 
ATOM     19  C   UNL     1      43.367   1.960  49.187  1.00  0.00     0.116 A 
ATOM     20  C   UNL     1      41.419   2.630  48.554  1.00  0.00     0.204 A 
ATOM     21  C   UNL     1      43.478   3.208  48.683  1.00  0.00     0.056 A 
ATOM     22  N   UNL     1      42.254   3.597  48.262  1.00  0.00    -0.242 NA
ATOM     23  C   UNL     1      44.727   4.043  48.539  1.00  0.00     0.068 C 
ENDBRANCH  15  18
BRANCH  16  24
ATOM     24  C   UNL     1      42.527  -2.943  51.008  1.00  0.00     0.416 C 
ATOM     25  F   UNL     1      43.624  -2.561  51.690  1.00  0.00    -0.166 F 
ATOM     26  F   UNL     1      41.881  -3.672  51.910  1.00  0.00    -0.166 F 
ATOM     27  F   UNL     1      43.027  -3.691  50.002  1.00  0.00    -0.166 F 
ENDBRANCH  16  24
ENDBRANCH  10  12
ENDBRANCH   1   8
BRANCH   6  28
ATOM     28  N   UNL     1      33.446   0.684  50.392  1.00  0.00    -0.324 N 
ATOM     29  H   UNL     1      33.216   1.316  49.612  1.00  0.00     0.170 HD
BRANCH  28  30
ATOM     30  C   UNL     1      33.228   1.086  51.711  1.00  0.00     0.227 A 
ATOM     31  N   UNL     1      33.899   1.976  52.431  1.00  0.00    -0.221 NA
ATOM     32  N   UNL     1      32.214   0.334  52.209  1.00  0.00    -0.213 NA
ATOM     33  C   UNL     1      33.504   2.145  53.707  1.00  0.00     0.117 A 
ATOM     34  C   UNL     1      31.878   0.514  53.492  1.00  0.00     0.077 A 
ATOM     35  C   UNL     1      32.519   1.420  54.261  1.00  0.00     0.049 A 
BRANCH  34  36
ATOM     36  C   UNL     1      30.739  -0.308  53.979  1.00  0.00     0.019 A 
ATOM     37  C   UNL     1      29.628   0.275  54.609  1.00  0.00     0.013 A 
ATOM     38  C   UNL     1      30.755  -1.709  53.833  1.00  0.00     0.121 A 
ATOM     39  C   UNL     1      28.605  -0.546  55.067  1.00  0.00     0.021 A 
ATOM     40  N   UNL     1      29.775  -2.506  54.279  1.00  0.00    -0.264 NA
ATOM     41  C   UNL     1      28.712  -1.920  54.855  1.00  0.00     0.111 A 
ENDBRANCH  34  36
ENDBRANCH  28  30
ENDBRANCH   6  28
TORSDOF 7
ENDMDL
MODEL 19
REMARK VINA RESULT:   -10.269      3.422     11.123
REMARK INTER + INTRA:         -13.637
REMARK INTER:                 -12.358
REMARK INTRA:                  -1.279
REMARK CONF_INDEPENDENT:        2.088
REMARK UNBOUND:                -1.279
REMARK SMILES Cc1cn(-c2cc(NC(=O)c3ccc(C)c(Nc4nccc(-c5cccnc5)n4)c3)cc(C(F)(F)F)c2)cn1
REMARK SMILES IDX 11 1 12 2 13 3 14 4 15 5 16 6 30 7 9 8 10 9 8 10 7 12 6 13
REMARK SMILES IDX 31 14 5 15 32 16 37 17 4 18 3 19 38 20 2 21 39 22 1 23 33 24
REMARK SMILES IDX 34 25 35 26 36 27 17 28 18 30 19 31 29 32 20 33 22 34 21 35
REMARK SMILES IDX 23 36 24 37 28 38 25 39 27 40 26 41
REMARK H PARENT 8 11 17 29
ROOT
ATOM      1  C   UNL     1      25.590   3.793  51.207  1.00  0.00     0.042 A 
ATOM      2  C   UNL     1      25.341   3.597  49.841  1.00  0.00     0.014 A 
ATOM      3  C   UNL     1      24.421   4.385  49.148  1.00  0.00     0.006 A 
ATOM      4  C   UNL     1      23.655   5.338  49.802  1.00  0.00    -0.027 A 
ATOM      5  C   UNL     1      22.650   6.185  49.036  1.00  0.00     0.046 C 
ATOM      6  C   UNL     1      23.823   5.467  51.180  1.00  0.00     0.045 A 
ATOM      7  C   UNL     1      24.770   4.683  51.852  1.00  0.00     0.040 A 
ENDROOT
BRANCH   1   8
ATOM      8  C   UNL     1      26.447   2.928  52.042  1.00  0.00     0.255 C 
ATOM      9  O   UNL     1      26.018   2.681  53.142  1.00  0.00    -0.269 OA
ATOM     10  N   UNL     1      27.461   2.317  51.412  1.00  0.00    -0.322 N 
ATOM     11  H   UNL     1      27.603   2.549  50.419  1.00  0.00     0.170 HD
BRANCH  10  12
ATOM     12  C   UNL     1      28.338   1.400  51.978  1.00  0.00     0.044 A 
ATOM     13  C   UNL     1      29.551   1.059  51.330  1.00  0.00     0.052 A 
ATOM     14  C   UNL     1      27.985   0.697  53.150  1.00  0.00     0.039 A 
ATOM     15  C   UNL     1      30.445   0.145  51.896  1.00  0.00     0.049 A 
ATOM     16  C   UNL     1      28.906  -0.217  53.737  1.00  0.00     0.060 A 
ATOM     17  C   UNL     1      30.105  -0.501  53.080  1.00  0.00     0.039 A 
BRANCH  15  18
ATOM     18  N   UNL     1      31.667  -0.168  51.283  1.00  0.00    -0.306 N 
ATOM     19  C   UNL     1      31.950  -1.165  50.352  1.00  0.00     0.116 A 
ATOM     20  C   UNL     1      32.858   0.384  51.543  1.00  0.00     0.204 A 
ATOM     21  C   UNL     1      33.279  -1.150  50.107  1.00  0.00     0.056 A 
ATOM     22  N   UNL     1      33.824  -0.153  50.838  1.00  0.00    -0.242 NA
ATOM     23  C   UNL     1      34.059  -2.028  49.159  1.00  0.00     0.068 C 
ENDBRANCH  15  18
BRANCH  16  24
ATOM     24  C   UNL     1      28.531  -0.901  55.011  1.00  0.00     0.416 C 
ATOM     25  F   UNL     1      29.510  -1.639  55.571  1.00  0.00    -0.166 F 
ATOM     26  F   UNL     1      28.270  -0.019  55.968  1.00  0.00    -0.166 F 
ATOM     27  F   UNL     1      27.528  -1.788  54.841  1.00  0.00    -0.166 F 
ENDBRANCH  16  24
ENDBRANCH  10  12
ENDBRANCH   1   8
BRANCH   6  28
ATOM     28  N   UNL     1      23.183   6.528  51.833  1.00  0.00    -0.324 N 
ATOM     29  H   UNL     1      22.985   7.404  51.329  1.00  0.00     0.170 HD
BRANCH  28  30
ATOM     30  C   UNL     1      22.815   6.388  53.173  1.00  0.00     0.227 A 
ATOM     31  N   UNL     1      21.607   6.204  53.689  1.00  0.00    -0.221 NA
ATOM     32  N   UNL     1      23.932   6.554  53.926  1.00  0.00    -0.213 NA
ATOM     33  C   UNL     1      21.525   6.145  55.032  1.00  0.00     0.117 A 
ATOM     34  C   UNL     1      23.796   6.520  55.257  1.00  0.00     0.077 A 
ATOM     35  C   UNL     1      22.590   6.317  55.830  1.00  0.00     0.049 A 
BRANCH  34  36
ATOM     36  C   UNL     1      25.053   6.672  56.035  1.00  0.00     0.019 A 
ATOM     37  C   UNL     1      25.058   7.241  57.319  1.00  0.00     0.013 A 
ATOM     38  C   UNL     1      26.285   6.258  55.493  1.00  0.00     0.121 A 
ATOM     39  C   UNL     1      26.267   7.381  57.990  1.00  0.00     0.021 A 
ATOM     40  N   UNL     1      27.454   6.398  56.131  1.00  0.00    -0.264 NA
ATOM     41  C   UNL     1      27.427   6.922  57.368  1.00  0.00     0.111 A 
ENDBRANCH  34  36
ENDBRANCH  28  30
ENDBRANCH   6  28
TORSDOF 7
ENDMDL
MODEL 20
REMARK VINA RESULT:    -9.617      4.320     10.441
REMARK INTER + INTRA:         -13.631
REMARK INTER:                 -11.705
REMARK INTRA:                  -1.926
REMARK CONF_INDEPENDENT:        2.088
REMARK UNBOUND:                -1.926
REMARK SMILES Cc1cn(-c2cc(NC(=O)c3ccc(C)c(Nc4nccc(-c5cccnc5)n4)c3)cc(C(F)(F)F)c2)cn1
REMARK SMILES IDX 11 1 12 2 13 3 14 4 15 5 16 6 30 7 9 8 10 9 8 10 7 12 6 13
REMARK SMILES IDX 31 14 5 15 32 16 37 17 4 18 3 19 38 20 2 21 39 22 1 23 33 24
REMARK SMILES IDX 34 25 35 26 36 27 17 28 18 30 19 31 29 32 20 33 22 34 21 35
REMARK SMILES IDX 23 36 24 37 28 38 25 39 27 40 26 41
REMARK H PARENT 8 11 17 29
ROOT
ATOM      1  C   UNL     1      21.891   8.053  53.284  1.00  0.00     0.042 A 
ATOM      2  C   UNL     1      21.335   9.332  53.138  1.00  0.00     0.014 A 
ATOM      3  C   UNL     1      20.525   9.891  54.128  1.00  0.00     0.006 A 
ATOM      4  C   UNL     1      20.171   9.171  55.257  1.00  0.00    -0.027 A 
ATOM      5  C   UNL     1      19.281   9.790  56.325  1.00  0.00     0.046 C 
ATOM      6  C   UNL     1      20.636   7.861  55.360  1.00  0.00     0.045 A 
ATOM      7  C   UNL     1      21.468   7.327  54.367  1.00  0.00     0.040 A 
ENDROOT
BRANCH   1   8
ATOM      8  C   UNL     1      22.650   7.338  52.239  1.00  0.00     0.255 C 
ATOM      9  O   UNL     1      23.083   8.029  51.349  1.00  0.00    -0.269 OA
ATOM     10  N   UNL     1      22.987   6.069  52.516  1.00  0.00    -0.322 N 
ATOM     11  H   UNL     1      22.636   5.674  53.399  1.00  0.00     0.170 HD
BRANCH  10  12
ATOM     12  C   UNL     1      23.766   5.240  51.719  1.00  0.00     0.044 A 
ATOM     13  C   UNL     1      24.901   4.578  52.250  1.00  0.00     0.052 A 
ATOM     14  C   UNL     1      23.514   5.132  50.334  1.00  0.00     0.039 A 
ATOM     15  C   UNL     1      25.685   3.734  51.458  1.00  0.00     0.049 A 
ATOM     16  C   UNL     1      24.301   4.254  49.534  1.00  0.00     0.060 A 
ATOM     17  C   UNL     1      25.393   3.597  50.105  1.00  0.00     0.039 A 
BRANCH  15  18
ATOM     18  N   UNL     1      26.786   3.042  51.985  1.00  0.00    -0.306 N 
ATOM     19  C   UNL     1      27.155   2.866  53.317  1.00  0.00     0.116 A 
ATOM     20  C   UNL     1      27.780   2.473  51.292  1.00  0.00     0.204 A 
ATOM     21  C   UNL     1      28.332   2.205  53.346  1.00  0.00     0.056 A 
ATOM     22  N   UNL     1      28.691   1.939  52.070  1.00  0.00    -0.242 NA
ATOM     23  C   UNL     1      29.123   1.767  54.555  1.00  0.00     0.068 C 
ENDBRANCH  15  18
BRANCH  16  24
ATOM     24  C   UNL     1      23.975   4.113  48.083  1.00  0.00     0.416 C 
ATOM     25  F   UNL     1      24.430   2.985  47.504  1.00  0.00    -0.166 F 
ATOM     26  F   UNL     1      22.664   4.009  47.896  1.00  0.00    -0.166 F 
ATOM     27  F   UNL     1      24.525   5.093  47.336  1.00  0.00    -0.166 F 
ENDBRANCH  16  24
ENDBRANCH  10  12
ENDBRANCH   1   8
BRANCH   6  28
ATOM     28  N   UNL     1      20.428   7.172  56.562  1.00  0.00    -0.324 N 
ATOM     29  H   UNL     1      19.595   6.579  56.683  1.00  0.00     0.170 HD
BRANCH  28  30
ATOM     30  C   UNL     1      21.360   7.296  57.595  1.00  0.00     0.227 A 
ATOM     31  N   UNL     1      21.158   7.636  58.861  1.00  0.00    -0.221 NA
ATOM     32  N   UNL     1      22.592   7.078  57.067  1.00  0.00    -0.213 NA
ATOM     33  C   UNL     1      22.249   7.724  59.646  1.00  0.00     0.117 A 
ATOM     34  C   UNL     1      23.648   7.209  57.878  1.00  0.00     0.077 A 
ATOM     35  C   UNL     1      23.493   7.536  59.179  1.00  0.00     0.049 A 
BRANCH  34  36
ATOM     36  C   UNL     1      24.970   6.926  57.261  1.00  0.00     0.019 A 
ATOM     37  C   UNL     1      25.092   6.591  55.903  1.00  0.00     0.013 A 
ATOM     38  C   UNL     1      26.146   6.974  58.036  1.00  0.00     0.121 A 
ATOM     39  C   UNL     1      26.351   6.312  55.386  1.00  0.00     0.021 A 
ATOM     40  N   UNL     1      27.361   6.698  57.545  1.00  0.00    -0.264 NA
ATOM     41  C   UNL     1      27.451   6.405  56.238  1.00  0.00     0.111 A 
ENDBRANCH  34  36
ENDBRANCH  28  30
ENDBRANCH   6  28
TORSDOF 7
ENDMDL
