MODEL 1
REMARK VINA RESULT:   -15.154      0.000      0.000
REMARK INTER + INTRA:         -18.421
REMARK INTER:                 -17.242
REMARK INTRA:                  -1.179
REMARK CONF_INDEPENDENT:        2.088
REMARK UNBOUND:                -1.179
REMARK SMILES Cc1cn(-c2cc(NC(=O)c3ccc(C)c(Nc4nccc(-c5cccnc5)n4)c3)cc(C(F)(F)F)c2)cn1
REMARK SMILES IDX 11 1 12 2 13 3 14 4 15 5 16 6 30 7 9 8 10 9 8 10 7 12 6 13
REMARK SMILES IDX 31 14 5 15 32 16 37 17 4 18 3 19 38 20 2 21 39 22 1 23 33 24
REMARK SMILES IDX 34 25 35 26 36 27 17 28 18 30 19 31 29 32 20 33 22 34 21 35
REMARK SMILES IDX 23 36 24 37 28 38 25 39 27 40 26 41
REMARK H PARENT 8 11 17 29
ROOT
ATOM      1  C   UNL     1      27.975   1.861  53.219  1.00  0.00     0.042 A 
ATOM      2  C   UNL     1      27.695   1.351  54.496  1.00  0.00     0.014 A 
ATOM      3  C   UNL     1      28.416   0.279  55.024  1.00  0.00     0.006 A 
ATOM      4  C   UNL     1      29.379  -0.378  54.275  1.00  0.00    -0.027 A 
ATOM      5  C   UNL     1      30.152  -1.551  54.862  1.00  0.00     0.046 C 
ATOM      6  C   UNL     1      29.590   0.058  52.968  1.00  0.00     0.045 A 
ATOM      7  C   UNL     1      28.874   1.152  52.465  1.00  0.00     0.040 A 
ENDROOT
BRANCH   1   8
ATOM      8  C   UNL     1      27.184   2.903  52.535  1.00  0.00     0.255 C 
ATOM      9  O   UNL     1      27.524   3.154  51.404  1.00  0.00    -0.269 OA
ATOM     10  N   UNL     1      26.041   3.268  53.136  1.00  0.00    -0.322 N 
ATOM     11  H   UNL     1      25.840   2.846  54.053  1.00  0.00     0.170 HD
BRANCH  10  12
ATOM     12  C   UNL     1      25.106   4.164  52.634  1.00  0.00     0.044 A 
ATOM     13  C   UNL     1      24.181   4.807  53.493  1.00  0.00     0.052 A 
ATOM     14  C   UNL     1      24.977   4.363  51.242  1.00  0.00     0.039 A 
ATOM     15  C   UNL     1      23.242   5.717  52.999  1.00  0.00     0.049 A 
ATOM     16  C   UNL     1      24.035   5.307  50.743  1.00  0.00     0.060 A 
ATOM     17  C   UNL     1      23.162   5.942  51.629  1.00  0.00     0.039 A 
BRANCH  15  18
ATOM     18  N   UNL     1      22.350   6.390  53.847  1.00  0.00    -0.306 N 
ATOM     19  C   UNL     1      22.043   6.129  55.181  1.00  0.00     0.116 A 
ATOM     20  C   UNL     1      21.524   7.388  53.511  1.00  0.00     0.204 A 
ATOM     21  C   UNL     1      21.066   6.979  55.564  1.00  0.00     0.056 A 
ATOM     22  N   UNL     1      20.778   7.780  54.515  1.00  0.00    -0.242 NA
ATOM     23  C   UNL     1      20.415   7.095  56.921  1.00  0.00     0.068 C 
ENDBRANCH  15  18
BRANCH  16  24
ATOM     24  C   UNL     1      23.961   5.542  49.269  1.00  0.00     0.416 C 
ATOM     25  F   UNL     1      24.674   6.596  48.824  1.00  0.00    -0.166 F 
ATOM     26  F   UNL     1      24.510   4.537  48.597  1.00  0.00    -0.166 F 
ATOM     27  F   UNL     1      22.707   5.815  48.855  1.00  0.00    -0.166 F 
ENDBRANCH  16  24
ENDBRANCH  10  12
ENDBRANCH   1   8
BRANCH   6  28
ATOM     28  N   UNL     1      30.666  -0.480  52.251  1.00  0.00    -0.324 N 
ATOM     29  H   UNL     1      30.525  -1.294  51.636  1.00  0.00     0.170 HD
BRANCH  28  30
ATOM     30  C   UNL     1      31.932   0.096  52.376  1.00  0.00     0.227 A 
ATOM     31  N   UNL     1      32.329   1.063  53.193  1.00  0.00    -0.221 NA
ATOM     32  N   UNL     1      32.732  -0.458  51.429  1.00  0.00    -0.213 NA
ATOM     33  C   UNL     1      33.608   1.466  53.077  1.00  0.00     0.117 A 
ATOM     34  C   UNL     1      33.986  -0.002  51.331  1.00  0.00     0.077 A 
ATOM     35  C   UNL     1      34.443   0.968  52.151  1.00  0.00     0.049 A 
BRANCH  34  36
ATOM     36  C   UNL     1      34.831  -0.665  50.303  1.00  0.00     0.019 A 
ATOM     37  C   UNL     1      36.119  -0.196  49.996  1.00  0.00     0.013 A 
ATOM     38  C   UNL     1      34.351  -1.783  49.594  1.00  0.00     0.121 A 
ATOM     39  C   UNL     1      36.853  -0.840  49.009  1.00  0.00     0.021 A 
ATOM     40  N   UNL     1      35.051  -2.403  48.636  1.00  0.00    -0.264 NA
ATOM     41  C   UNL     1      36.289  -1.949  48.380  1.00  0.00     0.111 A 
ENDBRANCH  34  36
ENDBRANCH  28  30
ENDBRANCH   6  28
TORSDOF 7
ENDMDL
MODEL 2
REMARK VINA RESULT:   -13.598      2.337      3.578
REMARK INTER + INTRA:         -16.921
REMARK INTER:                 -15.686
REMARK INTRA:                  -1.235
REMARK CONF_INDEPENDENT:        2.088
REMARK UNBOUND:                -1.235
REMARK SMILES Cc1cn(-c2cc(NC(=O)c3ccc(C)c(Nc4nccc(-c5cccnc5)n4)c3)cc(C(F)(F)F)c2)cn1
REMARK SMILES IDX 11 1 12 2 13 3 14 4 15 5 16 6 30 7 9 8 10 9 8 10 7 12 6 13
REMARK SMILES IDX 31 14 5 15 32 16 37 17 4 18 3 19 38 20 2 21 39 22 1 23 33 24
REMARK SMILES IDX 34 25 35 26 36 27 17 28 18 30 19 31 29 32 20 33 22 34 21 35
REMARK SMILES IDX 23 36 24 37 28 38 25 39 27 40 26 41
REMARK H PARENT 8 11 17 29
ROOT
ATOM      1  C   UNL     1      28.068   1.763  53.502  1.00  0.00     0.042 A 
ATOM      2  C   UNL     1      27.644   1.016  54.611  1.00  0.00     0.014 A 
ATOM      3  C   UNL     1      28.229  -0.211  54.928  1.00  0.00     0.006 A 
ATOM      4  C   UNL     1      29.195  -0.779  54.113  1.00  0.00    -0.027 A 
ATOM      5  C   UNL     1      29.819  -2.121  54.468  1.00  0.00     0.046 C 
ATOM      6  C   UNL     1      29.547  -0.090  52.954  1.00  0.00     0.045 A 
ATOM      7  C   UNL     1      28.967   1.151  52.666  1.00  0.00     0.040 A 
ENDROOT
BRANCH   1   8
ATOM      8  C   UNL     1      27.424   3.001  53.022  1.00  0.00     0.255 C 
ATOM      9  O   UNL     1      27.953   3.527  52.073  1.00  0.00    -0.269 OA
ATOM     10  N   UNL     1      26.204   3.263  53.516  1.00  0.00    -0.322 N 
ATOM     11  H   UNL     1      25.844   2.621  54.236  1.00  0.00     0.170 HD
BRANCH  10  12
ATOM     12  C   UNL     1      25.384   4.321  53.145  1.00  0.00     0.044 A 
ATOM     13  C   UNL     1      25.001   4.505  51.793  1.00  0.00     0.052 A 
ATOM     14  C   UNL     1      25.012   5.305  54.087  1.00  0.00     0.039 A 
ATOM     15  C   UNL     1      24.167   5.560  51.412  1.00  0.00     0.049 A 
ATOM     16  C   UNL     1      24.145   6.367  53.701  1.00  0.00     0.060 A 
ATOM     17  C   UNL     1      23.766   6.494  52.363  1.00  0.00     0.039 A 
BRANCH  15  18
ATOM     18  N   UNL     1      23.748   5.727  50.084  1.00  0.00    -0.306 N 
ATOM     19  C   UNL     1      22.523   5.400  49.505  1.00  0.00     0.116 A 
ATOM     20  C   UNL     1      24.490   6.160  49.058  1.00  0.00     0.204 A 
ATOM     21  C   UNL     1      22.600   5.659  48.181  1.00  0.00     0.056 A 
ATOM     22  N   UNL     1      23.828   6.164  47.927  1.00  0.00    -0.242 NA
ATOM     23  C   UNL     1      21.524   5.486  47.137  1.00  0.00     0.068 C 
ENDBRANCH  15  18
BRANCH  16  24
ATOM     24  C   UNL     1      23.719   7.361  54.732  1.00  0.00     0.416 C 
ATOM     25  F   UNL     1      23.297   6.829  55.896  1.00  0.00    -0.166 F 
ATOM     26  F   UNL     1      24.743   8.108  55.127  1.00  0.00    -0.166 F 
ATOM     27  F   UNL     1      22.667   8.101  54.327  1.00  0.00    -0.166 F 
ENDBRANCH  16  24
ENDBRANCH  10  12
ENDBRANCH   1   8
BRANCH   6  28
ATOM     28  N   UNL     1      30.632  -0.561  52.203  1.00  0.00    -0.324 N 
ATOM     29  H   UNL     1      30.513  -1.357  51.561  1.00  0.00     0.170 HD
BRANCH  28  30
ATOM     30  C   UNL     1      31.877   0.058  52.332  1.00  0.00     0.227 A 
ATOM     31  N   UNL     1      32.227   1.069  53.117  1.00  0.00    -0.221 NA
ATOM     32  N   UNL     1      32.715  -0.508  51.425  1.00  0.00    -0.213 NA
ATOM     33  C   UNL     1      33.496   1.507  53.012  1.00  0.00     0.117 A 
ATOM     34  C   UNL     1      33.956  -0.018  51.335  1.00  0.00     0.077 A 
ATOM     35  C   UNL     1      34.365   0.998  52.125  1.00  0.00     0.049 A 
BRANCH  34  36
ATOM     36  C   UNL     1      34.844  -0.695  50.353  1.00  0.00     0.019 A 
ATOM     37  C   UNL     1      36.188  -0.320  50.197  1.00  0.00     0.013 A 
ATOM     38  C   UNL     1      34.349  -1.730  49.537  1.00  0.00     0.121 A 
ATOM     39  C   UNL     1      36.964  -0.970  49.246  1.00  0.00     0.021 A 
ATOM     40  N   UNL     1      35.090  -2.356  48.613  1.00  0.00    -0.264 NA
ATOM     41  C   UNL     1      36.379  -1.994  48.502  1.00  0.00     0.111 A 
ENDBRANCH  34  36
ENDBRANCH  28  30
ENDBRANCH   6  28
TORSDOF 7
ENDMDL
MODEL 3
REMARK VINA RESULT:   -12.199      1.637      3.668
REMARK INTER + INTRA:         -15.849
REMARK INTER:                 -14.287
REMARK INTRA:                  -1.562
REMARK CONF_INDEPENDENT:        2.088
REMARK UNBOUND:                -1.562
REMARK SMILES Cc1cn(-c2cc(NC(=O)c3ccc(C)c(Nc4nccc(-c5cccnc5)n4)c3)cc(C(F)(F)F)c2)cn1
REMARK SMILES IDX 11 1 12 2 13 3 14 4 15 5 16 6 30 7 9 8 10 9 8 10 7 12 6 13
REMARK SMILES IDX 31 14 5 15 32 16 37 17 4 18 3 19 38 20 2 21 39 22 1 23 33 24
REMARK SMILES IDX 34 25 35 26 36 27 17 28 18 30 19 31 29 32 20 33 22 34 21 35
REMARK SMILES IDX 23 36 24 37 28 38 25 39 27 40 26 41
REMARK H PARENT 8 11 17 29
ROOT
ATOM      1  C   UNL     1      27.734   1.689  53.048  1.00  0.00     0.042 A 
ATOM      2  C   UNL     1      27.354   1.064  54.245  1.00  0.00     0.014 A 
ATOM      3  C   UNL     1      28.037  -0.053  54.729  1.00  0.00     0.006 A 
ATOM      4  C   UNL     1      29.063  -0.638  54.005  1.00  0.00    -0.027 A 
ATOM      5  C   UNL     1      29.793  -1.861  54.542  1.00  0.00     0.046 C 
ATOM      6  C   UNL     1      29.376  -0.084  52.765  1.00  0.00     0.045 A 
ATOM      7  C   UNL     1      28.696   1.052  52.308  1.00  0.00     0.040 A 
ENDROOT
BRANCH   1   8
ATOM      8  C   UNL     1      26.994   2.790  52.400  1.00  0.00     0.255 C 
ATOM      9  O   UNL     1      27.357   3.073  51.284  1.00  0.00    -0.269 OA
ATOM     10  N   UNL     1      25.860   3.177  53.005  1.00  0.00    -0.322 N 
ATOM     11  H   UNL     1      25.631   2.726  53.902  1.00  0.00     0.170 HD
BRANCH  10  12
ATOM     12  C   UNL     1      24.968   4.131  52.532  1.00  0.00     0.044 A 
ATOM     13  C   UNL     1      24.053   4.768  53.406  1.00  0.00     0.052 A 
ATOM     14  C   UNL     1      24.871   4.400  51.149  1.00  0.00     0.039 A 
ATOM     15  C   UNL     1      23.158   5.736  52.942  1.00  0.00     0.049 A 
ATOM     16  C   UNL     1      23.974   5.402  50.681  1.00  0.00     0.060 A 
ATOM     17  C   UNL     1      23.110   6.027  51.582  1.00  0.00     0.039 A 
BRANCH  15  18
ATOM     18  N   UNL     1      22.277   6.402  53.807  1.00  0.00    -0.306 N 
ATOM     19  C   UNL     1      21.841   7.725  53.763  1.00  0.00     0.116 A 
ATOM     20  C   UNL     1      21.735   5.915  54.929  1.00  0.00     0.204 A 
ATOM     21  C   UNL     1      21.067   7.950  54.848  1.00  0.00     0.056 A 
ATOM     22  N   UNL     1      20.987   6.796  55.547  1.00  0.00    -0.242 NA
ATOM     23  C   UNL     1      20.351   9.222  55.230  1.00  0.00     0.068 C 
ENDBRANCH  15  18
BRANCH  16  24
ATOM     24  C   UNL     1      23.935   5.709  49.219  1.00  0.00     0.416 C 
ATOM     25  F   UNL     1      24.349   6.947  48.885  1.00  0.00    -0.166 F 
ATOM     26  F   UNL     1      24.787   4.943  48.548  1.00  0.00    -0.166 F 
ATOM     27  F   UNL     1      22.684   5.651  48.716  1.00  0.00    -0.166 F 
ENDBRANCH  16  24
ENDBRANCH  10  12
ENDBRANCH   1   8
BRANCH   6  28
ATOM     28  N   UNL     1      30.511  -0.554  52.092  1.00  0.00    -0.324 N 
ATOM     29  H   UNL     1      30.462  -1.417  51.532  1.00  0.00     0.170 HD
BRANCH  28  30
ATOM     30  C   UNL     1      31.709   0.156  52.186  1.00  0.00     0.227 A 
ATOM     31  N   UNL     1      32.815   0.022  51.465  1.00  0.00    -0.221 NA
ATOM     32  N   UNL     1      31.601   1.008  53.238  1.00  0.00    -0.213 NA
ATOM     33  C   UNL     1      33.853   0.814  51.796  1.00  0.00     0.117 A 
ATOM     34  C   UNL     1      32.670   1.751  53.548  1.00  0.00     0.077 A 
ATOM     35  C   UNL     1      33.812   1.664  52.834  1.00  0.00     0.049 A 
BRANCH  34  36
ATOM     36  C   UNL     1      32.490   2.692  54.685  1.00  0.00     0.019 A 
ATOM     37  C   UNL     1      33.351   3.783  54.880  1.00  0.00     0.013 A 
ATOM     38  C   UNL     1      31.448   2.501  55.613  1.00  0.00     0.121 A 
ATOM     39  C   UNL     1      33.150   4.615  55.974  1.00  0.00     0.021 A 
ATOM     40  N   UNL     1      31.253   3.295  56.674  1.00  0.00    -0.264 NA
ATOM     41  C   UNL     1      32.076   4.346  56.822  1.00  0.00     0.111 A 
ENDBRANCH  34  36
ENDBRANCH  28  30
ENDBRANCH   6  28
TORSDOF 7
ENDMDL
MODEL 4
REMARK VINA RESULT:   -11.522      3.728     11.688
REMARK INTER + INTRA:         -14.739
REMARK INTER:                 -13.610
REMARK INTRA:                  -1.129
REMARK CONF_INDEPENDENT:        2.088
REMARK UNBOUND:                -1.129
REMARK SMILES Cc1cn(-c2cc(NC(=O)c3ccc(C)c(Nc4nccc(-c5cccnc5)n4)c3)cc(C(F)(F)F)c2)cn1
REMARK SMILES IDX 11 1 12 2 13 3 14 4 15 5 16 6 30 7 9 8 10 9 8 10 7 12 6 13
REMARK SMILES IDX 31 14 5 15 32 16 37 17 4 18 3 19 38 20 2 21 39 22 1 23 33 24
REMARK SMILES IDX 34 25 35 26 36 27 17 28 18 30 19 31 29 32 20 33 22 34 21 35
REMARK SMILES IDX 23 36 24 37 28 38 25 39 27 40 26 41
REMARK H PARENT 8 11 17 29
ROOT
ATOM      1  C   UNL     1      25.994   3.713  51.750  1.00  0.00     0.042 A 
ATOM      2  C   UNL     1      25.344   4.076  50.561  1.00  0.00     0.014 A 
ATOM      3  C   UNL     1      24.190   4.861  50.574  1.00  0.00     0.006 A 
ATOM      4  C   UNL     1      23.593   5.242  51.765  1.00  0.00    -0.027 A 
ATOM      5  C   UNL     1      22.330   6.091  51.763  1.00  0.00     0.046 C 
ATOM      6  C   UNL     1      24.175   4.796  52.950  1.00  0.00     0.045 A 
ATOM      7  C   UNL     1      25.348   4.031  52.917  1.00  0.00     0.040 A 
ENDROOT
BRANCH   1   8
ATOM      8  C   UNL     1      27.139   2.785  51.836  1.00  0.00     0.255 C 
ATOM      9  O   UNL     1      27.927   2.849  50.924  1.00  0.00    -0.269 OA
ATOM     10  N   UNL     1      27.313   2.168  53.015  1.00  0.00    -0.322 N 
ATOM     11  H   UNL     1      26.602   2.336  53.740  1.00  0.00     0.170 HD
BRANCH  10  12
ATOM     12  C   UNL     1      28.365   1.323  53.345  1.00  0.00     0.044 A 
ATOM     13  C   UNL     1      29.676   1.571  52.866  1.00  0.00     0.052 A 
ATOM     14  C   UNL     1      28.130   0.132  54.066  1.00  0.00     0.039 A 
ATOM     15  C   UNL     1      30.742   0.733  53.201  1.00  0.00     0.049 A 
ATOM     16  C   UNL     1      29.222  -0.709  54.425  1.00  0.00     0.060 A 
ATOM     17  C   UNL     1      30.503  -0.411  53.957  1.00  0.00     0.039 A 
BRANCH  15  18
ATOM     18  N   UNL     1      32.050   0.993  52.767  1.00  0.00    -0.306 N 
ATOM     19  C   UNL     1      32.689   0.564  51.604  1.00  0.00     0.116 A 
ATOM     20  C   UNL     1      33.004   1.646  53.441  1.00  0.00     0.204 A 
ATOM     21  C   UNL     1      33.971   0.985  51.647  1.00  0.00     0.056 A 
ATOM     22  N   UNL     1      34.140   1.688  52.789  1.00  0.00    -0.242 NA
ATOM     23  C   UNL     1      35.050   0.784  50.610  1.00  0.00     0.068 C 
ENDBRANCH  15  18
BRANCH  16  24
ATOM     24  C   UNL     1      28.952  -1.932  55.240  1.00  0.00     0.416 C 
ATOM     25  F   UNL     1      28.181  -2.859  54.638  1.00  0.00    -0.166 F 
ATOM     26  F   UNL     1      30.071  -2.610  55.468  1.00  0.00    -0.166 F 
ATOM     27  F   UNL     1      28.278  -1.654  56.376  1.00  0.00    -0.166 F 
ENDBRANCH  16  24
ENDBRANCH  10  12
ENDBRANCH   1   8
BRANCH   6  28
ATOM     28  N   UNL     1      23.688   5.301  54.163  1.00  0.00    -0.324 N 
ATOM     29  H   UNL     1      22.704   5.153  54.429  1.00  0.00     0.170 HD
BRANCH  28  30
ATOM     30  C   UNL     1      24.547   6.005  55.009  1.00  0.00     0.227 A 
ATOM     31  N   UNL     1      25.849   6.223  54.879  1.00  0.00    -0.221 NA
ATOM     32  N   UNL     1      23.828   6.397  56.092  1.00  0.00    -0.213 NA
ATOM     33  C   UNL     1      26.451   6.904  55.872  1.00  0.00     0.117 A 
ATOM     34  C   UNL     1      24.476   7.043  57.068  1.00  0.00     0.077 A 
ATOM     35  C   UNL     1      25.798   7.304  56.974  1.00  0.00     0.049 A 
BRANCH  34  36
ATOM     36  C   UNL     1      23.639   7.481  58.215  1.00  0.00     0.019 A 
ATOM     37  C   UNL     1      24.133   8.357  59.195  1.00  0.00     0.013 A 
ATOM     38  C   UNL     1      22.318   7.011  58.357  1.00  0.00     0.121 A 
ATOM     39  C   UNL     1      23.314   8.712  60.258  1.00  0.00     0.021 A 
ATOM     40  N   UNL     1      21.526   7.344  59.385  1.00  0.00    -0.264 NA
ATOM     41  C   UNL     1      22.016   8.203  60.293  1.00  0.00     0.111 A 
ENDBRANCH  34  36
ENDBRANCH  28  30
ENDBRANCH   6  28
TORSDOF 7
ENDMDL
MODEL 5
REMARK VINA RESULT:   -11.273      4.120     11.139
REMARK INTER + INTRA:         -14.551
REMARK INTER:                 -13.361
REMARK INTRA:                  -1.189
REMARK CONF_INDEPENDENT:        2.088
REMARK UNBOUND:                -1.189
REMARK SMILES Cc1cn(-c2cc(NC(=O)c3ccc(C)c(Nc4nccc(-c5cccnc5)n4)c3)cc(C(F)(F)F)c2)cn1
REMARK SMILES IDX 11 1 12 2 13 3 14 4 15 5 16 6 30 7 9 8 10 9 8 10 7 12 6 13
REMARK SMILES IDX 31 14 5 15 32 16 37 17 4 18 3 19 38 20 2 21 39 22 1 23 33 24
REMARK SMILES IDX 34 25 35 26 36 27 17 28 18 30 19 31 29 32 20 33 22 34 21 35
REMARK SMILES IDX 23 36 24 37 28 38 25 39 27 40 26 41
REMARK H PARENT 8 11 17 29
ROOT
ATOM      1  C   UNL     1      25.873   3.882  51.973  1.00  0.00     0.042 A 
ATOM      2  C   UNL     1      25.275   4.357  50.796  1.00  0.00     0.014 A 
ATOM      3  C   UNL     1      24.146   5.177  50.834  1.00  0.00     0.006 A 
ATOM      4  C   UNL     1      23.522   5.485  52.032  1.00  0.00    -0.027 A 
ATOM      5  C   UNL     1      22.287   6.374  52.058  1.00  0.00     0.046 C 
ATOM      6  C   UNL     1      24.051   4.931  53.197  1.00  0.00     0.045 A 
ATOM      7  C   UNL     1      25.199   4.132  53.140  1.00  0.00     0.040 A 
ENDROOT
BRANCH   1   8
ATOM      8  C   UNL     1      26.986   2.914  52.022  1.00  0.00     0.255 C 
ATOM      9  O   UNL     1      27.724   2.923  51.066  1.00  0.00    -0.269 OA
ATOM     10  N   UNL     1      27.203   2.321  53.205  1.00  0.00    -0.322 N 
ATOM     11  H   UNL     1      26.540   2.535  53.964  1.00  0.00     0.170 HD
BRANCH  10  12
ATOM     12  C   UNL     1      28.239   1.444  53.501  1.00  0.00     0.044 A 
ATOM     13  C   UNL     1      29.548   1.672  53.009  1.00  0.00     0.052 A 
ATOM     14  C   UNL     1      27.985   0.242  54.198  1.00  0.00     0.039 A 
ATOM     15  C   UNL     1      30.599   0.801  53.310  1.00  0.00     0.049 A 
ATOM     16  C   UNL     1      29.062  -0.632  54.522  1.00  0.00     0.060 A 
ATOM     17  C   UNL     1      30.343  -0.353  54.042  1.00  0.00     0.039 A 
BRANCH  15  18
ATOM     18  N   UNL     1      31.907   1.041  52.862  1.00  0.00    -0.306 N 
ATOM     19  C   UNL     1      32.541   0.566  51.716  1.00  0.00     0.116 A 
ATOM     20  C   UNL     1      32.863   1.718  53.509  1.00  0.00     0.204 A 
ATOM     21  C   UNL     1      33.825   0.985  51.739  1.00  0.00     0.056 A 
ATOM     22  N   UNL     1      33.998   1.732  52.853  1.00  0.00    -0.242 NA
ATOM     23  C   UNL     1      34.901   0.741  50.709  1.00  0.00     0.068 C 
ENDBRANCH  15  18
BRANCH  16  24
ATOM     24  C   UNL     1      28.774  -1.867  55.313  1.00  0.00     0.416 C 
ATOM     25  F   UNL     1      28.177  -2.859  54.623  1.00  0.00    -0.166 F 
ATOM     26  F   UNL     1      29.899  -2.450  55.713  1.00  0.00    -0.166 F 
ATOM     27  F   UNL     1      27.922  -1.637  56.333  1.00  0.00    -0.166 F 
ENDBRANCH  16  24
ENDBRANCH  10  12
ENDBRANCH   1   8
BRANCH   6  28
ATOM     28  N   UNL     1      23.539   5.357  54.429  1.00  0.00    -0.324 N 
ATOM     29  H   UNL     1      22.787   4.826  54.890  1.00  0.00     0.170 HD
BRANCH  28  30
ATOM     30  C   UNL     1      24.058   6.507  55.028  1.00  0.00     0.227 A 
ATOM     31  N   UNL     1      24.156   7.733  54.530  1.00  0.00    -0.221 NA
ATOM     32  N   UNL     1      24.549   6.153  56.244  1.00  0.00    -0.213 NA
ATOM     33  C   UNL     1      24.744   8.659  55.311  1.00  0.00     0.117 A 
ATOM     34  C   UNL     1      25.153   7.100  56.970  1.00  0.00     0.077 A 
ATOM     35  C   UNL     1      25.261   8.367  56.514  1.00  0.00     0.049 A 
BRANCH  34  36
ATOM     36  C   UNL     1      25.641   6.671  58.307  1.00  0.00     0.019 A 
ATOM     37  C   UNL     1      24.755   6.286  59.325  1.00  0.00     0.013 A 
ATOM     38  C   UNL     1      27.021   6.654  58.592  1.00  0.00     0.121 A 
ATOM     39  C   UNL     1      25.267   5.918  60.563  1.00  0.00     0.021 A 
ATOM     40  N   UNL     1      27.520   6.308  59.786  1.00  0.00    -0.264 NA
ATOM     41  C   UNL     1      26.651   5.920  60.733  1.00  0.00     0.111 A 
ENDBRANCH  34  36
ENDBRANCH  28  30
ENDBRANCH   6  28
TORSDOF 7
ENDMDL
MODEL 6
REMARK VINA RESULT:   -11.207      7.058      9.826
REMARK INTER + INTRA:         -14.619
REMARK INTER:                 -13.295
REMARK INTRA:                  -1.324
REMARK CONF_INDEPENDENT:        2.088
REMARK UNBOUND:                -1.324
REMARK SMILES Cc1cn(-c2cc(NC(=O)c3ccc(C)c(Nc4nccc(-c5cccnc5)n4)c3)cc(C(F)(F)F)c2)cn1
REMARK SMILES IDX 11 1 12 2 13 3 14 4 15 5 16 6 30 7 9 8 10 9 8 10 7 12 6 13
REMARK SMILES IDX 31 14 5 15 32 16 37 17 4 18 3 19 38 20 2 21 39 22 1 23 33 24
REMARK SMILES IDX 34 25 35 26 36 27 17 28 18 30 19 31 29 32 20 33 22 34 21 35
REMARK SMILES IDX 23 36 24 37 28 38 25 39 27 40 26 41
REMARK H PARENT 8 11 17 29
ROOT
ATOM      1  C   UNL     1      32.044   3.097  55.047  1.00  0.00     0.042 A 
ATOM      2  C   UNL     1      33.306   3.166  54.438  1.00  0.00     0.014 A 
ATOM      3  C   UNL     1      33.659   2.306  53.397  1.00  0.00     0.006 A 
ATOM      4  C   UNL     1      32.808   1.295  52.980  1.00  0.00    -0.027 A 
ATOM      5  C   UNL     1      33.209   0.360  51.848  1.00  0.00     0.046 C 
ATOM      6  C   UNL     1      31.594   1.155  53.651  1.00  0.00     0.045 A 
ATOM      7  C   UNL     1      31.248   2.044  54.676  1.00  0.00     0.040 A 
ENDROOT
BRANCH   1   8
ATOM      8  C   UNL     1      31.636   3.877  56.232  1.00  0.00     0.255 C 
ATOM      9  O   UNL     1      30.525   4.347  56.184  1.00  0.00    -0.269 OA
ATOM     10  N   UNL     1      32.423   3.768  57.312  1.00  0.00    -0.322 N 
ATOM     11  H   UNL     1      33.280   3.206  57.211  1.00  0.00     0.170 HD
BRANCH  10  12
ATOM     12  C   UNL     1      32.188   4.343  58.555  1.00  0.00     0.044 A 
ATOM     13  C   UNL     1      31.846   5.713  58.668  1.00  0.00     0.052 A 
ATOM     14  C   UNL     1      32.402   3.605  59.739  1.00  0.00     0.039 A 
ATOM     15  C   UNL     1      31.597   6.299  59.913  1.00  0.00     0.049 A 
ATOM     16  C   UNL     1      32.127   4.197  61.005  1.00  0.00     0.060 A 
ATOM     17  C   UNL     1      31.762   5.544  61.070  1.00  0.00     0.039 A 
BRANCH  15  18
ATOM     18  N   UNL     1      31.217   7.644  60.033  1.00  0.00    -0.306 N 
ATOM     19  C   UNL     1      29.961   8.218  59.849  1.00  0.00     0.116 A 
ATOM     20  C   UNL     1      32.023   8.686  60.266  1.00  0.00     0.204 A 
ATOM     21  C   UNL     1      30.085   9.557  59.986  1.00  0.00     0.056 A 
ATOM     22  N   UNL     1      31.376   9.826  60.278  1.00  0.00    -0.242 NA
ATOM     23  C   UNL     1      29.002  10.604  59.893  1.00  0.00     0.068 C 
ENDBRANCH  15  18
BRANCH  16  24
ATOM     24  C   UNL     1      32.304   3.375  62.240  1.00  0.00     0.416 C 
ATOM     25  F   UNL     1      31.886   2.097  62.139  1.00  0.00    -0.166 F 
ATOM     26  F   UNL     1      33.591   3.221  62.530  1.00  0.00    -0.166 F 
ATOM     27  F   UNL     1      31.595   3.855  63.283  1.00  0.00    -0.166 F 
ENDBRANCH  16  24
ENDBRANCH  10  12
ENDBRANCH   1   8
BRANCH   6  28
ATOM     28  N   UNL     1      30.652   0.251  53.143  1.00  0.00    -0.324 N 
ATOM     29  H   UNL     1      30.911  -0.400  52.388  1.00  0.00     0.170 HD
BRANCH  28  30
ATOM     30  C   UNL     1      29.359   0.238  53.670  1.00  0.00     0.227 A 
ATOM     31  N   UNL     1      28.837  -0.580  54.575  1.00  0.00    -0.221 NA
ATOM     32  N   UNL     1      28.643   1.196  53.027  1.00  0.00    -0.213 NA
ATOM     33  C   UNL     1      27.537  -0.399  54.876  1.00  0.00     0.117 A 
ATOM     34  C   UNL     1      27.347   1.317  53.337  1.00  0.00     0.077 A 
ATOM     35  C   UNL     1      26.774   0.520  54.264  1.00  0.00     0.049 A 
BRANCH  34  36
ATOM     36  C   UNL     1      26.617   2.402  52.632  1.00  0.00     0.019 A 
ATOM     37  C   UNL     1      25.678   3.208  53.295  1.00  0.00     0.013 A 
ATOM     38  C   UNL     1      26.840   2.641  51.261  1.00  0.00     0.121 A 
ATOM     39  C   UNL     1      25.006   4.191  52.578  1.00  0.00     0.021 A 
ATOM     40  N   UNL     1      26.190   3.582  50.564  1.00  0.00    -0.264 NA
ATOM     41  C   UNL     1      25.316   4.355  51.229  1.00  0.00     0.111 A 
ENDBRANCH  34  36
ENDBRANCH  28  30
ENDBRANCH   6  28
TORSDOF 7
ENDMDL
MODEL 7
REMARK VINA RESULT:   -11.092      4.742      8.404
REMARK INTER + INTRA:         -14.126
REMARK INTER:                 -13.180
REMARK INTRA:                  -0.945
REMARK CONF_INDEPENDENT:        2.088
REMARK UNBOUND:                -0.945
REMARK SMILES Cc1cn(-c2cc(NC(=O)c3ccc(C)c(Nc4nccc(-c5cccnc5)n4)c3)cc(C(F)(F)F)c2)cn1
REMARK SMILES IDX 11 1 12 2 13 3 14 4 15 5 16 6 30 7 9 8 10 9 8 10 7 12 6 13
REMARK SMILES IDX 31 14 5 15 32 16 37 17 4 18 3 19 38 20 2 21 39 22 1 23 33 24
REMARK SMILES IDX 34 25 35 26 36 27 17 28 18 30 19 31 29 32 20 33 22 34 21 35
REMARK SMILES IDX 23 36 24 37 28 38 25 39 27 40 26 41
REMARK H PARENT 8 11 17 29
ROOT
ATOM      1  C   UNL     1      34.356  -0.665  50.674  1.00  0.00     0.042 A 
ATOM      2  C   UNL     1      34.481  -1.951  50.128  1.00  0.00     0.014 A 
ATOM      3  C   UNL     1      35.525  -2.274  49.260  1.00  0.00     0.006 A 
ATOM      4  C   UNL     1      36.432  -1.315  48.839  1.00  0.00    -0.027 A 
ATOM      5  C   UNL     1      37.562  -1.680  47.886  1.00  0.00     0.046 C 
ATOM      6  C   UNL     1      36.252  -0.011  49.297  1.00  0.00     0.045 A 
ATOM      7  C   UNL     1      35.213   0.287  50.187  1.00  0.00     0.040 A 
ENDROOT
BRANCH   1   8
ATOM      8  C   UNL     1      33.219  -0.204  51.494  1.00  0.00     0.255 C 
ATOM      9  O   UNL     1      33.255   0.956  51.824  1.00  0.00    -0.269 OA
ATOM     10  N   UNL     1      32.168  -1.034  51.568  1.00  0.00    -0.322 N 
ATOM     11  H   UNL     1      32.262  -1.950  51.106  1.00  0.00     0.170 HD
BRANCH  10  12
ATOM     12  C   UNL     1      30.964  -0.772  52.211  1.00  0.00     0.044 A 
ATOM     13  C   UNL     1      30.168   0.340  51.838  1.00  0.00     0.052 A 
ATOM     14  C   UNL     1      30.567  -1.535  53.330  1.00  0.00     0.039 A 
ATOM     15  C   UNL     1      28.951   0.606  52.472  1.00  0.00     0.049 A 
ATOM     16  C   UNL     1      29.316  -1.276  53.960  1.00  0.00     0.060 A 
ATOM     17  C   UNL     1      28.547  -0.188  53.540  1.00  0.00     0.039 A 
BRANCH  15  18
ATOM     18  N   UNL     1      28.136   1.679  52.082  1.00  0.00    -0.306 N 
ATOM     19  C   UNL     1      27.109   2.301  52.790  1.00  0.00     0.116 A 
ATOM     20  C   UNL     1      28.117   2.278  50.885  1.00  0.00     0.204 A 
ATOM     21  C   UNL     1      26.545   3.229  51.987  1.00  0.00     0.056 A 
ATOM     22  N   UNL     1      27.211   3.222  50.812  1.00  0.00    -0.242 NA
ATOM     23  C   UNL     1      25.410   4.171  52.311  1.00  0.00     0.068 C 
ENDBRANCH  15  18
BRANCH  16  24
ATOM     24  C   UNL     1      28.892  -2.138  55.104  1.00  0.00     0.416 C 
ATOM     25  F   UNL     1      27.845  -2.948  54.850  1.00  0.00    -0.166 F 
ATOM     26  F   UNL     1      29.842  -3.010  55.422  1.00  0.00    -0.166 F 
ATOM     27  F   UNL     1      28.480  -1.416  56.166  1.00  0.00    -0.166 F 
ENDBRANCH  16  24
ENDBRANCH  10  12
ENDBRANCH   1   8
BRANCH   6  28
ATOM     28  N   UNL     1      37.245   0.937  49.017  1.00  0.00    -0.324 N 
ATOM     29  H   UNL     1      36.987   1.875  48.679  1.00  0.00     0.170 HD
BRANCH  28  30
ATOM     30  C   UNL     1      38.588   0.599  49.199  1.00  0.00     0.227 A 
ATOM     31  N   UNL     1      39.143  -0.106  50.176  1.00  0.00    -0.221 NA
ATOM     32  N   UNL     1      39.301   1.198  48.211  1.00  0.00    -0.213 NA
ATOM     33  C   UNL     1      40.482  -0.248  50.135  1.00  0.00     0.117 A 
ATOM     34  C   UNL     1      40.631   1.056  48.230  1.00  0.00     0.077 A 
ATOM     35  C   UNL     1      41.242   0.333  49.193  1.00  0.00     0.049 A 
BRANCH  34  36
ATOM     36  C   UNL     1      41.363   1.700  47.108  1.00  0.00     0.019 A 
ATOM     37  C   UNL     1      40.688   2.209  45.986  1.00  0.00     0.013 A 
ATOM     38  C   UNL     1      42.767   1.805  47.136  1.00  0.00     0.121 A 
ATOM     39  C   UNL     1      41.426   2.778  44.956  1.00  0.00     0.021 A 
ATOM     40  N   UNL     1      43.484   2.346  46.143  1.00  0.00    -0.264 NA
ATOM     41  C   UNL     1      42.812   2.847  45.094  1.00  0.00     0.111 A 
ENDBRANCH  34  36
ENDBRANCH  28  30
ENDBRANCH   6  28
TORSDOF 7
ENDMDL
MODEL 8
REMARK VINA RESULT:   -10.988      3.888     11.726
REMARK INTER + INTRA:         -14.195
REMARK INTER:                 -13.076
REMARK INTRA:                  -1.119
REMARK CONF_INDEPENDENT:        2.088
REMARK UNBOUND:                -1.119
REMARK SMILES Cc1cn(-c2cc(NC(=O)c3ccc(C)c(Nc4nccc(-c5cccnc5)n4)c3)cc(C(F)(F)F)c2)cn1
REMARK SMILES IDX 11 1 12 2 13 3 14 4 15 5 16 6 30 7 9 8 10 9 8 10 7 12 6 13
REMARK SMILES IDX 31 14 5 15 32 16 37 17 4 18 3 19 38 20 2 21 39 22 1 23 33 24
REMARK SMILES IDX 34 25 35 26 36 27 17 28 18 30 19 31 29 32 20 33 22 34 21 35
REMARK SMILES IDX 23 36 24 37 28 38 25 39 27 40 26 41
REMARK H PARENT 8 11 17 29
ROOT
ATOM      1  C   UNL     1      25.834   3.548  51.884  1.00  0.00     0.042 A 
ATOM      2  C   UNL     1      24.985   3.385  50.780  1.00  0.00     0.014 A 
ATOM      3  C   UNL     1      23.648   3.784  50.825  1.00  0.00     0.006 A 
ATOM      4  C   UNL     1      23.086   4.282  51.990  1.00  0.00    -0.027 A 
ATOM      5  C   UNL     1      21.625   4.707  52.027  1.00  0.00     0.046 C 
ATOM      6  C   UNL     1      23.899   4.350  53.121  1.00  0.00     0.045 A 
ATOM      7  C   UNL     1      25.244   3.967  53.048  1.00  0.00     0.040 A 
ENDROOT
BRANCH   1   8
ATOM      8  C   UNL     1      27.218   3.040  51.966  1.00  0.00     0.255 C 
ATOM      9  O   UNL     1      27.799   2.947  50.912  1.00  0.00    -0.269 OA
ATOM     10  N   UNL     1      27.755   2.981  53.194  1.00  0.00    -0.322 N 
ATOM     11  H   UNL     1      27.143   3.229  53.984  1.00  0.00     0.170 HD
BRANCH  10  12
ATOM     12  C   UNL     1      29.061   2.616  53.497  1.00  0.00     0.044 A 
ATOM     13  C   UNL     1      29.748   1.658  52.712  1.00  0.00     0.052 A 
ATOM     14  C   UNL     1      29.689   3.102  54.664  1.00  0.00     0.039 A 
ATOM     15  C   UNL     1      31.066   1.292  53.003  1.00  0.00     0.049 A 
ATOM     16  C   UNL     1      31.038   2.745  54.947  1.00  0.00     0.060 A 
ATOM     17  C   UNL     1      31.690   1.819  54.129  1.00  0.00     0.039 A 
BRANCH  15  18
ATOM     18  N   UNL     1      31.770   0.375  52.208  1.00  0.00    -0.306 N 
ATOM     19  C   UNL     1      31.365  -0.258  51.034  1.00  0.00     0.116 A 
ATOM     20  C   UNL     1      32.968  -0.159  52.471  1.00  0.00     0.204 A 
ATOM     21  C   UNL     1      32.335  -1.121  50.664  1.00  0.00     0.056 A 
ATOM     22  N   UNL     1      33.344  -1.021  51.558  1.00  0.00    -0.242 NA
ATOM     23  C   UNL     1      32.366  -2.020  49.451  1.00  0.00     0.068 C 
ENDBRANCH  15  18
BRANCH  16  24
ATOM     24  C   UNL     1      31.699   3.321  56.157  1.00  0.00     0.416 C 
ATOM     25  F   UNL     1      31.095   4.411  56.671  1.00  0.00    -0.166 F 
ATOM     26  F   UNL     1      31.650   2.473  57.177  1.00  0.00    -0.166 F 
ATOM     27  F   UNL     1      32.953   3.749  55.902  1.00  0.00    -0.166 F 
ENDBRANCH  16  24
ENDBRANCH  10  12
ENDBRANCH   1   8
BRANCH   6  28
ATOM     28  N   UNL     1      23.403   4.998  54.260  1.00  0.00    -0.324 N 
ATOM     29  H   UNL     1      22.440   4.821  54.579  1.00  0.00     0.170 HD
BRANCH  28  30
ATOM     30  C   UNL     1      24.225   5.884  54.958  1.00  0.00     0.227 A 
ATOM     31  N   UNL     1      25.467   6.261  54.682  1.00  0.00    -0.221 NA
ATOM     32  N   UNL     1      23.556   6.273  56.075  1.00  0.00    -0.213 NA
ATOM     33  C   UNL     1      26.052   7.103  55.555  1.00  0.00     0.117 A 
ATOM     34  C   UNL     1      24.191   7.084  56.928  1.00  0.00     0.077 A 
ATOM     35  C   UNL     1      25.449   7.510  56.683  1.00  0.00     0.049 A 
BRANCH  34  36
ATOM     36  C   UNL     1      23.405   7.508  58.116  1.00  0.00     0.019 A 
ATOM     37  C   UNL     1      24.029   7.865  59.322  1.00  0.00     0.013 A 
ATOM     38  C   UNL     1      21.997   7.549  58.066  1.00  0.00     0.121 A 
ATOM     39  C   UNL     1      23.242   8.229  60.408  1.00  0.00     0.021 A 
ATOM     40  N   UNL     1      21.233   7.891  59.111  1.00  0.00    -0.264 NA
ATOM     41  C   UNL     1      21.857   8.252  60.244  1.00  0.00     0.111 A 
ENDBRANCH  34  36
ENDBRANCH  28  30
ENDBRANCH   6  28
TORSDOF 7
ENDMDL
MODEL 9
REMARK VINA RESULT:   -10.985      3.606     12.291
REMARK INTER + INTRA:         -14.350
REMARK INTER:                 -13.073
REMARK INTRA:                  -1.277
REMARK CONF_INDEPENDENT:        2.088
REMARK UNBOUND:                -1.277
REMARK SMILES Cc1cn(-c2cc(NC(=O)c3ccc(C)c(Nc4nccc(-c5cccnc5)n4)c3)cc(C(F)(F)F)c2)cn1
REMARK SMILES IDX 11 1 12 2 13 3 14 4 15 5 16 6 30 7 9 8 10 9 8 10 7 12 6 13
REMARK SMILES IDX 31 14 5 15 32 16 37 17 4 18 3 19 38 20 2 21 39 22 1 23 33 24
REMARK SMILES IDX 34 25 35 26 36 27 17 28 18 30 19 31 29 32 20 33 22 34 21 35
REMARK SMILES IDX 23 36 24 37 28 38 25 39 27 40 26 41
REMARK H PARENT 8 11 17 29
ROOT
ATOM      1  C   UNL     1      25.721   3.756  51.946  1.00  0.00     0.042 A 
ATOM      2  C   UNL     1      25.272   4.381  50.773  1.00  0.00     0.014 A 
ATOM      3  C   UNL     1      24.102   5.142  50.757  1.00  0.00     0.006 A 
ATOM      4  C   UNL     1      23.293   5.241  51.878  1.00  0.00    -0.027 A 
ATOM      5  C   UNL     1      22.016   6.068  51.843  1.00  0.00     0.046 C 
ATOM      6  C   UNL     1      23.680   4.537  53.017  1.00  0.00     0.045 A 
ATOM      7  C   UNL     1      24.871   3.800  53.020  1.00  0.00     0.040 A 
ENDROOT
BRANCH   1   8
ATOM      8  C   UNL     1      26.871   2.834  52.023  1.00  0.00     0.255 C 
ATOM      9  O   UNL     1      27.617   2.855  51.075  1.00  0.00    -0.269 OA
ATOM     10  N   UNL     1      27.100   2.273  53.220  1.00  0.00    -0.322 N 
ATOM     11  H   UNL     1      26.421   2.474  53.968  1.00  0.00     0.170 HD
BRANCH  10  12
ATOM     12  C   UNL     1      28.167   1.444  53.542  1.00  0.00     0.044 A 
ATOM     13  C   UNL     1      29.482   1.752  53.112  1.00  0.00     0.052 A 
ATOM     14  C   UNL     1      27.949   0.215  54.201  1.00  0.00     0.039 A 
ATOM     15  C   UNL     1      30.564   0.930  53.439  1.00  0.00     0.049 A 
ATOM     16  C   UNL     1      29.055  -0.610  54.553  1.00  0.00     0.060 A 
ATOM     17  C   UNL     1      30.339  -0.253  54.135  1.00  0.00     0.039 A 
BRANCH  15  18
ATOM     18  N   UNL     1      31.875   1.248  53.054  1.00  0.00    -0.306 N 
ATOM     19  C   UNL     1      32.619   0.751  51.986  1.00  0.00     0.116 A 
ATOM     20  C   UNL     1      32.730   2.046  53.705  1.00  0.00     0.204 A 
ATOM     21  C   UNL     1      33.861   1.277  52.055  1.00  0.00     0.056 A 
ATOM     22  N   UNL     1      33.900   2.110  53.119  1.00  0.00    -0.242 NA
ATOM     23  C   UNL     1      35.018   1.055  51.112  1.00  0.00     0.068 C 
ENDBRANCH  15  18
BRANCH  16  24
ATOM     24  C   UNL     1      28.800  -1.877  55.303  1.00  0.00     0.416 C 
ATOM     25  F   UNL     1      27.939  -2.727  54.710  1.00  0.00    -0.166 F 
ATOM     26  F   UNL     1      29.902  -2.614  55.383  1.00  0.00    -0.166 F 
ATOM     27  F   UNL     1      28.240  -1.654  56.510  1.00  0.00    -0.166 F 
ENDBRANCH  16  24
ENDBRANCH  10  12
ENDBRANCH   1   8
BRANCH   6  28
ATOM     28  N   UNL     1      22.970   4.751  54.206  1.00  0.00    -0.324 N 
ATOM     29  H   UNL     1      22.294   4.050  54.540  1.00  0.00     0.170 HD
BRANCH  28  30
ATOM     30  C   UNL     1      23.188   5.922  54.934  1.00  0.00     0.227 A 
ATOM     31  N   UNL     1      24.276   6.303  55.591  1.00  0.00    -0.221 NA
ATOM     32  N   UNL     1      22.027   6.626  54.938  1.00  0.00    -0.213 NA
ATOM     33  C   UNL     1      24.203   7.473  56.255  1.00  0.00     0.117 A 
ATOM     34  C   UNL     1      21.994   7.766  55.638  1.00  0.00     0.077 A 
ATOM     35  C   UNL     1      23.080   8.206  56.308  1.00  0.00     0.049 A 
BRANCH  34  36
ATOM     36  C   UNL     1      20.712   8.517  55.581  1.00  0.00     0.019 A 
ATOM     37  C   UNL     1      19.779   8.304  54.554  1.00  0.00     0.013 A 
ATOM     38  C   UNL     1      20.405   9.483  56.560  1.00  0.00     0.121 A 
ATOM     39  C   UNL     1      18.609   9.053  54.539  1.00  0.00     0.021 A 
ATOM     40  N   UNL     1      19.283  10.213  56.546  1.00  0.00    -0.264 NA
ATOM     41  C   UNL     1      18.397   9.971  55.566  1.00  0.00     0.111 A 
ENDBRANCH  34  36
ENDBRANCH  28  30
ENDBRANCH   6  28
TORSDOF 7
ENDMDL
MODEL 10
REMARK VINA RESULT:   -10.899      3.577     12.063
REMARK INTER + INTRA:         -14.311
REMARK INTER:                 -12.987
REMARK INTRA:                  -1.324
REMARK CONF_INDEPENDENT:        2.088
REMARK UNBOUND:                -1.324
REMARK SMILES Cc1cn(-c2cc(NC(=O)c3ccc(C)c(Nc4nccc(-c5cccnc5)n4)c3)cc(C(F)(F)F)c2)cn1
REMARK SMILES IDX 11 1 12 2 13 3 14 4 15 5 16 6 30 7 9 8 10 9 8 10 7 12 6 13
REMARK SMILES IDX 31 14 5 15 32 16 37 17 4 18 3 19 38 20 2 21 39 22 1 23 33 24
REMARK SMILES IDX 34 25 35 26 36 27 17 28 18 30 19 31 29 32 20 33 22 34 21 35
REMARK SMILES IDX 23 36 24 37 28 38 25 39 27 40 26 41
REMARK H PARENT 8 11 17 29
ROOT
ATOM      1  C   UNL     1      25.603   3.633  51.896  1.00  0.00     0.042 A 
ATOM      2  C   UNL     1      24.841   3.766  50.726  1.00  0.00     0.014 A 
ATOM      3  C   UNL     1      23.509   4.181  50.769  1.00  0.00     0.006 A 
ATOM      4  C   UNL     1      22.863   4.397  51.976  1.00  0.00    -0.027 A 
ATOM      5  C   UNL     1      21.408   4.842  52.008  1.00  0.00     0.046 C 
ATOM      6  C   UNL     1      23.585   4.166  53.146  1.00  0.00     0.045 A 
ATOM      7  C   UNL     1      24.928   3.774  53.080  1.00  0.00     0.040 A 
ENDROOT
BRANCH   1   8
ATOM      8  C   UNL     1      26.971   3.081  51.953  1.00  0.00     0.255 C 
ATOM      9  O   UNL     1      27.523   2.952  50.887  1.00  0.00    -0.269 OA
ATOM     10  N   UNL     1      27.536   3.023  53.168  1.00  0.00    -0.322 N 
ATOM     11  H   UNL     1      26.952   3.303  53.969  1.00  0.00     0.170 HD
BRANCH  10  12
ATOM     12  C   UNL     1      28.836   2.620  53.446  1.00  0.00     0.044 A 
ATOM     13  C   UNL     1      29.471   1.623  52.664  1.00  0.00     0.052 A 
ATOM     14  C   UNL     1      29.511   3.107  54.587  1.00  0.00     0.039 A 
ATOM     15  C   UNL     1      30.782   1.218  52.930  1.00  0.00     0.049 A 
ATOM     16  C   UNL     1      30.854   2.710  54.842  1.00  0.00     0.060 A 
ATOM     17  C   UNL     1      31.453   1.746  54.028  1.00  0.00     0.039 A 
BRANCH  15  18
ATOM     18  N   UNL     1      31.434   0.262  52.136  1.00  0.00    -0.306 N 
ATOM     19  C   UNL     1      32.782   0.184  51.790  1.00  0.00     0.116 A 
ATOM     20  C   UNL     1      30.863  -0.741  51.460  1.00  0.00     0.204 A 
ATOM     21  C   UNL     1      32.939  -0.854  50.939  1.00  0.00     0.056 A 
ATOM     22  N   UNL     1      31.733  -1.440  50.771  1.00  0.00    -0.242 NA
ATOM     23  C   UNL     1      34.216  -1.349  50.305  1.00  0.00     0.068 C 
ENDBRANCH  15  18
BRANCH  16  24
ATOM     24  C   UNL     1      31.565   3.288  56.023  1.00  0.00     0.416 C 
ATOM     25  F   UNL     1      31.650   2.472  57.092  1.00  0.00    -0.166 F 
ATOM     26  F   UNL     1      32.844   3.513  55.746  1.00  0.00    -0.166 F 
ATOM     27  F   UNL     1      30.944   4.381  56.511  1.00  0.00    -0.166 F 
ENDBRANCH  16  24
ENDBRANCH  10  12
ENDBRANCH   1   8
BRANCH   6  28
ATOM     28  N   UNL     1      23.008   4.531  54.368  1.00  0.00    -0.324 N 
ATOM     29  H   UNL     1      22.431   3.858  54.893  1.00  0.00     0.170 HD
BRANCH  28  30
ATOM     30  C   UNL     1      23.221   5.817  54.871  1.00  0.00     0.227 A 
ATOM     31  N   UNL     1      24.141   6.231  55.732  1.00  0.00    -0.221 NA
ATOM     32  N   UNL     1      22.241   6.619  54.380  1.00  0.00    -0.213 NA
ATOM     33  C   UNL     1      24.097   7.530  56.087  1.00  0.00     0.117 A 
ATOM     34  C   UNL     1      22.219   7.893  54.787  1.00  0.00     0.077 A 
ATOM     35  C   UNL     1      23.145   8.367  55.648  1.00  0.00     0.049 A 
BRANCH  34  36
ATOM     36  C   UNL     1      21.149   8.738  54.194  1.00  0.00     0.019 A 
ATOM     37  C   UNL     1      19.791   8.483  54.438  1.00  0.00     0.013 A 
ATOM     38  C   UNL     1      21.476   9.818  53.351  1.00  0.00     0.121 A 
ATOM     39  C   UNL     1      18.833   9.290  53.837  1.00  0.00     0.021 A 
ATOM     40  N   UNL     1      20.557  10.595  52.763  1.00  0.00    -0.264 NA
ATOM     41  C   UNL     1      19.266  10.344  53.034  1.00  0.00     0.111 A 
ENDBRANCH  34  36
ENDBRANCH  28  30
ENDBRANCH   6  28
TORSDOF 7
ENDMDL
MODEL 11
REMARK VINA RESULT:   -10.886      8.430     15.253
REMARK INTER + INTRA:         -14.284
REMARK INTER:                 -12.974
REMARK INTRA:                  -1.309
REMARK CONF_INDEPENDENT:        2.088
REMARK UNBOUND:                -1.309
REMARK SMILES Cc1cn(-c2cc(NC(=O)c3ccc(C)c(Nc4nccc(-c5cccnc5)n4)c3)cc(C(F)(F)F)c2)cn1
REMARK SMILES IDX 11 1 12 2 13 3 14 4 15 5 16 6 30 7 9 8 10 9 8 10 7 12 6 13
REMARK SMILES IDX 31 14 5 15 32 16 37 17 4 18 3 19 38 20 2 21 39 22 1 23 33 24
REMARK SMILES IDX 34 25 35 26 36 27 17 28 18 30 19 31 29 32 20 33 22 34 21 35
REMARK SMILES IDX 23 36 24 37 28 38 25 39 27 40 26 41
REMARK H PARENT 8 11 17 29
ROOT
ATOM      1  C   UNL     1      35.977  -1.704  49.307  1.00  0.00     0.042 A 
ATOM      2  C   UNL     1      35.176  -2.849  49.179  1.00  0.00     0.014 A 
ATOM      3  C   UNL     1      33.799  -2.801  49.404  1.00  0.00     0.006 A 
ATOM      4  C   UNL     1      33.183  -1.641  49.845  1.00  0.00    -0.027 A 
ATOM      5  C   UNL     1      31.682  -1.606  50.094  1.00  0.00     0.046 C 
ATOM      6  C   UNL     1      33.990  -0.528  50.074  1.00  0.00     0.045 A 
ATOM      7  C   UNL     1      35.365  -0.589  49.817  1.00  0.00     0.040 A 
ENDROOT
BRANCH   1   8
ATOM      8  C   UNL     1      37.450  -1.691  49.212  1.00  0.00     0.255 C 
ATOM      9  O   UNL     1      38.031  -1.362  50.217  1.00  0.00    -0.269 OA
ATOM     10  N   UNL     1      37.978  -2.276  48.127  1.00  0.00    -0.322 N 
ATOM     11  H   UNL     1      37.319  -2.627  47.417  1.00  0.00     0.170 HD
BRANCH  10  12
ATOM     12  C   UNL     1      39.333  -2.452  47.872  1.00  0.00     0.044 A 
ATOM     13  C   UNL     1      39.902  -2.031  46.645  1.00  0.00     0.052 A 
ATOM     14  C   UNL     1      40.147  -3.162  48.780  1.00  0.00     0.039 A 
ATOM     15  C   UNL     1      41.266  -2.195  46.384  1.00  0.00     0.049 A 
ATOM     16  C   UNL     1      41.540  -3.308  48.522  1.00  0.00     0.060 A 
ATOM     17  C   UNL     1      42.067  -2.851  47.312  1.00  0.00     0.039 A 
BRANCH  15  18
ATOM     18  N   UNL     1      41.847  -1.744  45.189  1.00  0.00    -0.306 N 
ATOM     19  C   UNL     1      42.150  -0.440  44.800  1.00  0.00     0.116 A 
ATOM     20  C   UNL     1      42.154  -2.484  44.118  1.00  0.00     0.204 A 
ATOM     21  C   UNL     1      42.620  -0.475  43.534  1.00  0.00     0.056 A 
ATOM     22  N   UNL     1      42.645  -1.767  43.137  1.00  0.00    -0.242 NA
ATOM     23  C   UNL     1      43.097   0.680  42.688  1.00  0.00     0.068 C 
ENDBRANCH  15  18
BRANCH  16  24
ATOM     24  C   UNL     1      42.391  -4.012  49.529  1.00  0.00     0.416 C 
ATOM     25  F   UNL     1      41.763  -4.976  50.232  1.00  0.00    -0.166 F 
ATOM     26  F   UNL     1      43.365  -4.694  48.938  1.00  0.00    -0.166 F 
ATOM     27  F   UNL     1      42.851  -3.178  50.484  1.00  0.00    -0.166 F 
ENDBRANCH  16  24
ENDBRANCH  10  12
ENDBRANCH   1   8
BRANCH   6  28
ATOM     28  N   UNL     1      33.371   0.696  50.361  1.00  0.00    -0.324 N 
ATOM     29  H   UNL     1      33.054   1.309  49.597  1.00  0.00     0.170 HD
BRANCH  28  30
ATOM     30  C   UNL     1      33.189   1.078  51.691  1.00  0.00     0.227 A 
ATOM     31  N   UNL     1      33.890   1.945  52.412  1.00  0.00    -0.221 NA
ATOM     32  N   UNL     1      32.175   0.332  52.199  1.00  0.00    -0.213 NA
ATOM     33  C   UNL     1      33.525   2.097  53.699  1.00  0.00     0.117 A 
ATOM     34  C   UNL     1      31.870   0.494  53.491  1.00  0.00     0.077 A 
ATOM     35  C   UNL     1      32.541   1.377  54.262  1.00  0.00     0.049 A 
BRANCH  34  36
ATOM     36  C   UNL     1      30.730  -0.319  53.990  1.00  0.00     0.019 A 
ATOM     37  C   UNL     1      29.646   0.267  54.662  1.00  0.00     0.013 A 
ATOM     38  C   UNL     1      30.717  -1.717  53.812  1.00  0.00     0.121 A 
ATOM     39  C   UNL     1      28.621  -0.546  55.128  1.00  0.00     0.021 A 
ATOM     40  N   UNL     1      29.735  -2.506  54.265  1.00  0.00    -0.264 NA
ATOM     41  C   UNL     1      28.699  -1.916  54.882  1.00  0.00     0.111 A 
ENDBRANCH  34  36
ENDBRANCH  28  30
ENDBRANCH   6  28
TORSDOF 7
ENDMDL
MODEL 12
REMARK VINA RESULT:   -10.763      4.177     11.096
REMARK INTER + INTRA:         -14.128
REMARK INTER:                 -12.851
REMARK INTRA:                  -1.277
REMARK CONF_INDEPENDENT:        2.088
REMARK UNBOUND:                -1.277
REMARK SMILES Cc1cn(-c2cc(NC(=O)c3ccc(C)c(Nc4nccc(-c5cccnc5)n4)c3)cc(C(F)(F)F)c2)cn1
REMARK SMILES IDX 11 1 12 2 13 3 14 4 15 5 16 6 30 7 9 8 10 9 8 10 7 12 6 13
REMARK SMILES IDX 31 14 5 15 32 16 37 17 4 18 3 19 38 20 2 21 39 22 1 23 33 24
REMARK SMILES IDX 34 25 35 26 36 27 17 28 18 30 19 31 29 32 20 33 22 34 21 35
REMARK SMILES IDX 23 36 24 37 28 38 25 39 27 40 26 41
REMARK H PARENT 8 11 17 29
ROOT
ATOM      1  C   UNL     1      25.576   3.763  51.910  1.00  0.00     0.042 A 
ATOM      2  C   UNL     1      24.736   3.742  50.786  1.00  0.00     0.014 A 
ATOM      3  C   UNL     1      23.407   4.162  50.864  1.00  0.00     0.006 A 
ATOM      4  C   UNL     1      22.842   4.539  52.072  1.00  0.00    -0.027 A 
ATOM      5  C   UNL     1      21.390   4.989  52.143  1.00  0.00     0.046 C 
ATOM      6  C   UNL     1      23.643   4.464  53.211  1.00  0.00     0.045 A 
ATOM      7  C   UNL     1      24.981   4.063  53.107  1.00  0.00     0.040 A 
ENDROOT
BRANCH   1   8
ATOM      8  C   UNL     1      26.948   3.221  51.947  1.00  0.00     0.255 C 
ATOM      9  O   UNL     1      27.519   3.182  50.885  1.00  0.00    -0.269 OA
ATOM     10  N   UNL     1      27.492   3.070  53.164  1.00  0.00    -0.322 N 
ATOM     11  H   UNL     1      26.891   3.280  53.974  1.00  0.00     0.170 HD
BRANCH  10  12
ATOM     12  C   UNL     1      28.791   2.657  53.432  1.00  0.00     0.044 A 
ATOM     13  C   UNL     1      29.413   1.657  52.645  1.00  0.00     0.052 A 
ATOM     14  C   UNL     1      29.477   3.138  54.569  1.00  0.00     0.039 A 
ATOM     15  C   UNL     1      30.723   1.243  52.900  1.00  0.00     0.049 A 
ATOM     16  C   UNL     1      30.819   2.730  54.815  1.00  0.00     0.060 A 
ATOM     17  C   UNL     1      31.405   1.764  53.995  1.00  0.00     0.039 A 
BRANCH  15  18
ATOM     18  N   UNL     1      31.363   0.284  52.100  1.00  0.00    -0.306 N 
ATOM     19  C   UNL     1      32.722  -0.004  51.997  1.00  0.00     0.116 A 
ATOM     20  C   UNL     1      30.790  -0.507  51.185  1.00  0.00     0.204 A 
ATOM     21  C   UNL     1      32.883  -0.943  51.039  1.00  0.00     0.056 A 
ATOM     22  N   UNL     1      31.660  -1.268  50.566  1.00  0.00    -0.242 NA
ATOM     23  C   UNL     1      34.168  -1.590  50.579  1.00  0.00     0.068 C 
ENDBRANCH  15  18
BRANCH  16  24
ATOM     24  C   UNL     1      31.542   3.301  55.992  1.00  0.00     0.416 C 
ATOM     25  F   UNL     1      31.650   2.473  57.050  1.00  0.00    -0.166 F 
ATOM     26  F   UNL     1      32.815   3.541  55.699  1.00  0.00    -0.166 F 
ATOM     27  F   UNL     1      30.918   4.382  56.503  1.00  0.00    -0.166 F 
ENDBRANCH  16  24
ENDBRANCH  10  12
ENDBRANCH   1   8
BRANCH   6  28
ATOM     28  N   UNL     1      23.147   4.992  54.410  1.00  0.00    -0.324 N 
ATOM     29  H   UNL     1      22.435   4.478  54.948  1.00  0.00     0.170 HD
BRANCH  28  30
ATOM     30  C   UNL     1      23.626   6.220  54.869  1.00  0.00     0.227 A 
ATOM     31  N   UNL     1      23.568   7.409  54.282  1.00  0.00    -0.221 NA
ATOM     32  N   UNL     1      24.267   5.998  56.046  1.00  0.00    -0.213 NA
ATOM     33  C   UNL     1      24.153   8.434  54.930  1.00  0.00     0.117 A 
ATOM     34  C   UNL     1      24.861   7.042  56.637  1.00  0.00     0.077 A 
ATOM     35  C   UNL     1      24.815   8.274  56.087  1.00  0.00     0.049 A 
BRANCH  34  36
ATOM     36  C   UNL     1      25.519   6.754  57.938  1.00  0.00     0.019 A 
ATOM     37  C   UNL     1      24.774   6.429  59.083  1.00  0.00     0.013 A 
ATOM     38  C   UNL     1      26.921   6.815  58.060  1.00  0.00     0.121 A 
ATOM     39  C   UNL     1      25.441   6.194  60.278  1.00  0.00     0.021 A 
ATOM     40  N   UNL     1      27.569   6.598  59.211  1.00  0.00    -0.264 NA
ATOM     41  C   UNL     1      26.834   6.264  60.284  1.00  0.00     0.111 A 
ENDBRANCH  34  36
ENDBRANCH  28  30
ENDBRANCH   6  28
TORSDOF 7
ENDMDL
MODEL 13
REMARK VINA RESULT:   -10.748      4.690     13.536
REMARK INTER + INTRA:         -14.188
REMARK INTER:                 -12.836
REMARK INTRA:                  -1.352
REMARK CONF_INDEPENDENT:        2.088
REMARK UNBOUND:                -1.352
REMARK SMILES Cc1cn(-c2cc(NC(=O)c3ccc(C)c(Nc4nccc(-c5cccnc5)n4)c3)cc(C(F)(F)F)c2)cn1
REMARK SMILES IDX 11 1 12 2 13 3 14 4 15 5 16 6 30 7 9 8 10 9 8 10 7 12 6 13
REMARK SMILES IDX 31 14 5 15 32 16 37 17 4 18 3 19 38 20 2 21 39 22 1 23 33 24
REMARK SMILES IDX 34 25 35 26 36 27 17 28 18 30 19 31 29 32 20 33 22 34 21 35
REMARK SMILES IDX 23 36 24 37 28 38 25 39 27 40 26 41
REMARK H PARENT 8 11 17 29
ROOT
ATOM      1  C   UNL     1      21.062   7.327  54.283  1.00  0.00     0.042 A 
ATOM      2  C   UNL     1      20.916   7.480  55.670  1.00  0.00     0.014 A 
ATOM      3  C   UNL     1      20.182   8.536  56.212  1.00  0.00     0.006 A 
ATOM      4  C   UNL     1      19.638   9.522  55.405  1.00  0.00    -0.027 A 
ATOM      5  C   UNL     1      18.846  10.672  56.010  1.00  0.00     0.046 C 
ATOM      6  C   UNL     1      19.867   9.432  54.033  1.00  0.00     0.045 A 
ATOM      7  C   UNL     1      20.585   8.351  53.506  1.00  0.00     0.040 A 
ENDROOT
BRANCH   1   8
ATOM      8  C   UNL     1      21.921   6.319  53.631  1.00  0.00     0.255 C 
ATOM      9  O   UNL     1      21.913   5.225  54.139  1.00  0.00    -0.269 OA
ATOM     10  N   UNL     1      22.408   6.648  52.425  1.00  0.00    -0.322 N 
ATOM     11  H   UNL     1      22.202   7.596  52.080  1.00  0.00     0.170 HD
BRANCH  10  12
ATOM     12  C   UNL     1      23.165   5.827  51.600  1.00  0.00     0.044 A 
ATOM     13  C   UNL     1      24.250   5.077  52.117  1.00  0.00     0.052 A 
ATOM     14  C   UNL     1      22.948   5.815  50.204  1.00  0.00     0.039 A 
ATOM     15  C   UNL     1      25.012   4.240  51.297  1.00  0.00     0.049 A 
ATOM     16  C   UNL     1      23.710   4.945  49.373  1.00  0.00     0.060 A 
ATOM     17  C   UNL     1      24.751   4.199  49.931  1.00  0.00     0.039 A 
BRANCH  15  18
ATOM     18  N   UNL     1      26.061   3.461  51.807  1.00  0.00    -0.306 N 
ATOM     19  C   UNL     1      26.408   3.223  53.136  1.00  0.00     0.116 A 
ATOM     20  C   UNL     1      27.019   2.847  51.103  1.00  0.00     0.204 A 
ATOM     21  C   UNL     1      27.539   2.484  53.150  1.00  0.00     0.056 A 
ATOM     22  N   UNL     1      27.887   2.232  51.869  1.00  0.00    -0.242 NA
ATOM     23  C   UNL     1      28.291   1.960  54.350  1.00  0.00     0.068 C 
ENDBRANCH  15  18
BRANCH  16  24
ATOM     24  C   UNL     1      23.418   4.908  47.908  1.00  0.00     0.416 C 
ATOM     25  F   UNL     1      22.167   5.275  47.567  1.00  0.00    -0.166 F 
ATOM     26  F   UNL     1      24.154   5.797  47.252  1.00  0.00    -0.166 F 
ATOM     27  F   UNL     1      23.531   3.666  47.394  1.00  0.00    -0.166 F 
ENDBRANCH  16  24
ENDBRANCH  10  12
ENDBRANCH   1   8
BRANCH   6  28
ATOM     28  N   UNL     1      19.194  10.321  53.185  1.00  0.00    -0.324 N 
ATOM     29  H   UNL     1      19.723  10.914  52.529  1.00  0.00     0.170 HD
BRANCH  28  30
ATOM     30  C   UNL     1      17.801  10.397  53.236  1.00  0.00     0.227 A 
ATOM     31  N   UNL     1      17.024  11.473  53.207  1.00  0.00    -0.221 NA
ATOM     32  N   UNL     1      17.326   9.137  53.407  1.00  0.00    -0.213 NA
ATOM     33  C   UNL     1      15.698  11.266  53.317  1.00  0.00     0.117 A 
ATOM     34  C   UNL     1      16.004   8.984  53.544  1.00  0.00     0.077 A 
ATOM     35  C   UNL     1      15.170  10.046  53.503  1.00  0.00     0.049 A 
BRANCH  34  36
ATOM     36  C   UNL     1      15.531   7.583  53.693  1.00  0.00     0.019 A 
ATOM     37  C   UNL     1      15.778   6.614  52.707  1.00  0.00     0.013 A 
ATOM     38  C   UNL     1      14.802   7.192  54.834  1.00  0.00     0.121 A 
ATOM     39  C   UNL     1      15.290   5.326  52.889  1.00  0.00     0.021 A 
ATOM     40  N   UNL     1      14.323   5.954  55.011  1.00  0.00    -0.264 NA
ATOM     41  C   UNL     1      14.596   5.041  54.064  1.00  0.00     0.111 A 
ENDBRANCH  34  36
ENDBRANCH  28  30
ENDBRANCH   6  28
TORSDOF 7
ENDMDL
MODEL 14
REMARK VINA RESULT:   -10.717      1.661      2.560
REMARK INTER + INTRA:         -13.871
REMARK INTER:                 -12.806
REMARK INTRA:                  -1.065
REMARK CONF_INDEPENDENT:        2.088
REMARK UNBOUND:                -1.065
REMARK SMILES Cc1cn(-c2cc(NC(=O)c3ccc(C)c(Nc4nccc(-c5cccnc5)n4)c3)cc(C(F)(F)F)c2)cn1
REMARK SMILES IDX 11 1 12 2 13 3 14 4 15 5 16 6 30 7 9 8 10 9 8 10 7 12 6 13
REMARK SMILES IDX 31 14 5 15 32 16 37 17 4 18 3 19 38 20 2 21 39 22 1 23 33 24
REMARK SMILES IDX 34 25 35 26 36 27 17 28 18 30 19 31 29 32 20 33 22 34 21 35
REMARK SMILES IDX 23 36 24 37 28 38 25 39 27 40 26 41
REMARK H PARENT 8 11 17 29
ROOT
ATOM      1  C   UNL     1      28.995   1.363  52.717  1.00  0.00     0.042 A 
ATOM      2  C   UNL     1      29.572   1.001  53.944  1.00  0.00     0.014 A 
ATOM      3  C   UNL     1      30.880   0.522  54.018  1.00  0.00     0.006 A 
ATOM      4  C   UNL     1      31.632   0.306  52.874  1.00  0.00    -0.027 A 
ATOM      5  C   UNL     1      33.056  -0.225  52.970  1.00  0.00     0.046 C 
ATOM      6  C   UNL     1      31.028   0.566  51.645  1.00  0.00     0.045 A 
ATOM      7  C   UNL     1      29.723   1.070  51.593  1.00  0.00     0.040 A 
ENDROOT
BRANCH   1   8
ATOM      8  C   UNL     1      27.584   1.757  52.532  1.00  0.00     0.255 C 
ATOM      9  O   UNL     1      26.786   1.157  53.209  1.00  0.00    -0.269 OA
ATOM     10  N   UNL     1      27.371   2.885  51.838  1.00  0.00    -0.322 N 
ATOM     11  H   UNL     1      28.197   3.349  51.435  1.00  0.00     0.170 HD
BRANCH  10  12
ATOM     12  C   UNL     1      26.138   3.484  51.614  1.00  0.00     0.044 A 
ATOM     13  C   UNL     1      25.317   3.886  52.697  1.00  0.00     0.052 A 
ATOM     14  C   UNL     1      25.621   3.597  50.305  1.00  0.00     0.039 A 
ATOM     15  C   UNL     1      24.079   4.499  52.482  1.00  0.00     0.049 A 
ATOM     16  C   UNL     1      24.370   4.241  50.087  1.00  0.00     0.060 A 
ATOM     17  C   UNL     1      23.607   4.650  51.182  1.00  0.00     0.039 A 
BRANCH  15  18
ATOM     18  N   UNL     1      23.278   4.939  53.547  1.00  0.00    -0.306 N 
ATOM     19  C   UNL     1      23.507   5.982  54.442  1.00  0.00     0.116 A 
ATOM     20  C   UNL     1      22.148   4.373  53.985  1.00  0.00     0.204 A 
ATOM     21  C   UNL     1      22.509   5.984  55.352  1.00  0.00     0.056 A 
ATOM     22  N   UNL     1      21.651   4.990  55.030  1.00  0.00    -0.242 NA
ATOM     23  C   UNL     1      22.307   6.934  56.508  1.00  0.00     0.068 C 
ENDBRANCH  15  18
BRANCH  16  24
ATOM     24  C   UNL     1      23.876   4.400  48.686  1.00  0.00     0.416 C 
ATOM     25  F   UNL     1      23.251   3.320  48.176  1.00  0.00    -0.166 F 
ATOM     26  F   UNL     1      22.925   5.325  48.617  1.00  0.00    -0.166 F 
ATOM     27  F   UNL     1      24.877   4.624  47.810  1.00  0.00    -0.166 F 
ENDBRANCH  16  24
ENDBRANCH  10  12
ENDBRANCH   1   8
BRANCH   6  28
ATOM     28  N   UNL     1      31.818   0.511  50.490  1.00  0.00    -0.324 N 
ATOM     29  H   UNL     1      31.935   1.348  49.901  1.00  0.00     0.170 HD
BRANCH  28  30
ATOM     30  C   UNL     1      32.445  -0.687  50.142  1.00  0.00     0.227 A 
ATOM     31  N   UNL     1      31.932  -1.910  50.087  1.00  0.00    -0.221 NA
ATOM     32  N   UNL     1      33.759  -0.418  49.929  1.00  0.00    -0.213 NA
ATOM     33  C   UNL     1      32.777  -2.907  49.762  1.00  0.00     0.117 A 
ATOM     34  C   UNL     1      34.566  -1.445  49.641  1.00  0.00     0.077 A 
ATOM     35  C   UNL     1      34.088  -2.705  49.555  1.00  0.00     0.049 A 
BRANCH  34  36
ATOM     36  C   UNL     1      35.986  -1.093  49.381  1.00  0.00     0.019 A 
ATOM     37  C   UNL     1      36.852  -1.973  48.711  1.00  0.00     0.013 A 
ATOM     38  C   UNL     1      36.510   0.138  49.821  1.00  0.00     0.121 A 
ATOM     39  C   UNL     1      38.176  -1.601  48.519  1.00  0.00     0.021 A 
ATOM     40  N   UNL     1      37.788   0.499  49.646  1.00  0.00    -0.264 NA
ATOM     41  C   UNL     1      38.586  -0.350  48.979  1.00  0.00     0.111 A 
ENDBRANCH  34  36
ENDBRANCH  28  30
ENDBRANCH   6  28
TORSDOF 7
ENDMDL
MODEL 15
REMARK VINA RESULT:   -10.548      5.715     10.839
REMARK INTER + INTRA:         -13.775
REMARK INTER:                 -12.636
REMARK INTRA:                  -1.139
REMARK CONF_INDEPENDENT:        2.088
REMARK UNBOUND:                -1.139
REMARK SMILES Cc1cn(-c2cc(NC(=O)c3ccc(C)c(Nc4nccc(-c5cccnc5)n4)c3)cc(C(F)(F)F)c2)cn1
REMARK SMILES IDX 11 1 12 2 13 3 14 4 15 5 16 6 30 7 9 8 10 9 8 10 7 12 6 13
REMARK SMILES IDX 31 14 5 15 32 16 37 17 4 18 3 19 38 20 2 21 39 22 1 23 33 24
REMARK SMILES IDX 34 25 35 26 36 27 17 28 18 30 19 31 29 32 20 33 22 34 21 35
REMARK SMILES IDX 23 36 24 37 28 38 25 39 27 40 26 41
REMARK H PARENT 8 11 17 29
ROOT
ATOM      1  C   UNL     1      22.363   6.447  55.277  1.00  0.00     0.042 A 
ATOM      2  C   UNL     1      21.627   7.573  54.878  1.00  0.00     0.014 A 
ATOM      3  C   UNL     1      21.148   8.496  55.809  1.00  0.00     0.006 A 
ATOM      4  C   UNL     1      21.309   8.293  57.170  1.00  0.00    -0.027 A 
ATOM      5  C   UNL     1      20.775   9.304  58.174  1.00  0.00     0.046 C 
ATOM      6  C   UNL     1      21.949   7.123  57.577  1.00  0.00     0.045 A 
ATOM      7  C   UNL     1      22.444   6.222  56.627  1.00  0.00     0.040 A 
ENDROOT
BRANCH   1   8
ATOM      8  C   UNL     1      22.795   5.360  54.377  1.00  0.00     0.255 C 
ATOM      9  O   UNL     1      21.927   4.594  54.035  1.00  0.00    -0.269 OA
ATOM     10  N   UNL     1      24.020   5.484  53.845  1.00  0.00    -0.322 N 
ATOM     11  H   UNL     1      24.585   6.287  54.155  1.00  0.00     0.170 HD
BRANCH  10  12
ATOM     12  C   UNL     1      24.597   4.628  52.915  1.00  0.00     0.044 A 
ATOM     13  C   UNL     1      23.865   4.183  51.785  1.00  0.00     0.052 A 
ATOM     14  C   UNL     1      25.882   4.087  53.136  1.00  0.00     0.039 A 
ATOM     15  C   UNL     1      24.440   3.331  50.839  1.00  0.00     0.049 A 
ATOM     16  C   UNL     1      26.473   3.237  52.159  1.00  0.00     0.060 A 
ATOM     17  C   UNL     1      25.727   2.847  51.045  1.00  0.00     0.039 A 
BRANCH  15  18
ATOM     18  N   UNL     1      23.738   2.918  49.696  1.00  0.00    -0.306 N 
ATOM     19  C   UNL     1      22.922   1.802  49.525  1.00  0.00     0.116 A 
ATOM     20  C   UNL     1      23.786   3.477  48.481  1.00  0.00     0.204 A 
ATOM     21  C   UNL     1      22.528   1.760  48.233  1.00  0.00     0.056 A 
ATOM     22  N   UNL     1      23.053   2.835  47.605  1.00  0.00    -0.242 NA
ATOM     23  C   UNL     1      21.621   0.752  47.570  1.00  0.00     0.068 C 
ENDBRANCH  15  18
BRANCH  16  24
ATOM     24  C   UNL     1      27.859   2.727  52.391  1.00  0.00     0.416 C 
ATOM     25  F   UNL     1      27.954   1.392  52.556  1.00  0.00    -0.166 F 
ATOM     26  F   UNL     1      28.625   2.927  51.325  1.00  0.00    -0.166 F 
ATOM     27  F   UNL     1      28.406   3.222  53.520  1.00  0.00    -0.166 F 
ENDBRANCH  16  24
ENDBRANCH  10  12
ENDBRANCH   1   8
BRANCH   6  28
ATOM     28  N   UNL     1      22.267   6.975  58.934  1.00  0.00    -0.324 N 
ATOM     29  H   UNL     1      21.750   6.303  59.518  1.00  0.00     0.170 HD
BRANCH  28  30
ATOM     30  C   UNL     1      23.291   7.747  59.487  1.00  0.00     0.227 A 
ATOM     31  N   UNL     1      23.466   9.061  59.430  1.00  0.00    -0.221 NA
ATOM     32  N   UNL     1      24.179   6.898  60.066  1.00  0.00    -0.213 NA
ATOM     33  C   UNL     1      24.574   9.550  60.020  1.00  0.00     0.117 A 
ATOM     34  C   UNL     1      25.281   7.428  60.610  1.00  0.00     0.077 A 
ATOM     35  C   UNL     1      25.496   8.761  60.593  1.00  0.00     0.049 A 
BRANCH  34  36
ATOM     36  C   UNL     1      26.204   6.462  61.260  1.00  0.00     0.019 A 
ATOM     37  C   UNL     1      26.393   6.447  62.652  1.00  0.00     0.013 A 
ATOM     38  C   UNL     1      26.932   5.536  60.487  1.00  0.00     0.121 A 
ATOM     39  C   UNL     1      27.288   5.539  63.202  1.00  0.00     0.021 A 
ATOM     40  N   UNL     1      27.801   4.663  61.011  1.00  0.00    -0.264 NA
ATOM     41  C   UNL     1      27.944   4.654  62.347  1.00  0.00     0.111 A 
ENDBRANCH  34  36
ENDBRANCH  28  30
ENDBRANCH   6  28
TORSDOF 7
ENDMDL
MODEL 16
REMARK VINA RESULT:   -10.418      3.393     12.083
REMARK INTER + INTRA:         -13.632
REMARK INTER:                 -12.506
REMARK INTRA:                  -1.126
REMARK CONF_INDEPENDENT:        2.088
REMARK UNBOUND:                -1.126
REMARK SMILES Cc1cn(-c2cc(NC(=O)c3ccc(C)c(Nc4nccc(-c5cccnc5)n4)c3)cc(C(F)(F)F)c2)cn1
REMARK SMILES IDX 11 1 12 2 13 3 14 4 15 5 16 6 30 7 9 8 10 9 8 10 7 12 6 13
REMARK SMILES IDX 31 14 5 15 32 16 37 17 4 18 3 19 38 20 2 21 39 22 1 23 33 24
REMARK SMILES IDX 34 25 35 26 36 27 17 28 18 30 19 31 29 32 20 33 22 34 21 35
REMARK SMILES IDX 23 36 24 37 28 38 25 39 27 40 26 41
REMARK H PARENT 8 11 17 29
ROOT
ATOM      1  C   UNL     1      26.012   3.282  51.863  1.00  0.00     0.042 A 
ATOM      2  C   UNL     1      25.998   3.595  50.496  1.00  0.00     0.014 A 
ATOM      3  C   UNL     1      24.938   4.298  49.922  1.00  0.00     0.006 A 
ATOM      4  C   UNL     1      23.818   4.641  50.664  1.00  0.00    -0.027 A 
ATOM      5  C   UNL     1      22.666   5.402  50.023  1.00  0.00     0.046 C 
ATOM      6  C   UNL     1      23.780   4.242  51.999  1.00  0.00     0.045 A 
ATOM      7  C   UNL     1      24.866   3.559  52.562  1.00  0.00     0.040 A 
ENDROOT
BRANCH   1   8
ATOM      8  C   UNL     1      27.026   2.436  52.524  1.00  0.00     0.255 C 
ATOM      9  O   UNL     1      26.810   2.179  53.683  1.00  0.00    -0.269 OA
ATOM     10  N   UNL     1      27.922   1.848  51.718  1.00  0.00    -0.322 N 
ATOM     11  H   UNL     1      27.875   2.083  50.716  1.00  0.00     0.170 HD
BRANCH  10  12
ATOM     12  C   UNL     1      28.908   0.951  52.111  1.00  0.00     0.044 A 
ATOM     13  C   UNL     1      30.105   0.813  51.365  1.00  0.00     0.052 A 
ATOM     14  C   UNL     1      28.687   0.070  53.192  1.00  0.00     0.039 A 
ATOM     15  C   UNL     1      31.106  -0.079  51.758  1.00  0.00     0.049 A 
ATOM     16  C   UNL     1      29.718  -0.823  53.604  1.00  0.00     0.060 A 
ATOM     17  C   UNL     1      30.895  -0.904  52.857  1.00  0.00     0.039 A 
BRANCH  15  18
ATOM     18  N   UNL     1      32.313  -0.192  51.050  1.00  0.00    -0.306 N 
ATOM     19  C   UNL     1      32.711  -1.179  50.151  1.00  0.00     0.116 A 
ATOM     20  C   UNL     1      33.388   0.596  51.168  1.00  0.00     0.204 A 
ATOM     21  C   UNL     1      33.986  -0.925  49.783  1.00  0.00     0.056 A 
ATOM     22  N   UNL     1      34.380   0.208  50.405  1.00  0.00    -0.242 NA
ATOM     23  C   UNL     1      34.845  -1.701  48.813  1.00  0.00     0.068 C 
ENDBRANCH  15  18
BRANCH  16  24
ATOM     24  C   UNL     1      29.480  -1.701  54.789  1.00  0.00     0.416 C 
ATOM     25  F   UNL     1      28.961  -2.912  54.505  1.00  0.00    -0.166 F 
ATOM     26  F   UNL     1      30.624  -2.024  55.380  1.00  0.00    -0.166 F 
ATOM     27  F   UNL     1      28.586  -1.171  55.649  1.00  0.00    -0.166 F 
ENDBRANCH  16  24
ENDBRANCH  10  12
ENDBRANCH   1   8
BRANCH   6  28
ATOM     28  N   UNL     1      22.739   4.715  52.807  1.00  0.00    -0.324 N 
ATOM     29  H   UNL     1      21.990   4.079  53.115  1.00  0.00     0.170 HD
BRANCH  28  30
ATOM     30  C   UNL     1      22.724   6.057  53.192  1.00  0.00     0.227 A 
ATOM     31  N   UNL     1      22.832   7.142  52.435  1.00  0.00    -0.221 NA
ATOM     32  N   UNL     1      22.656   6.096  54.547  1.00  0.00    -0.213 NA
ATOM     33  C   UNL     1      22.832   8.328  53.072  1.00  0.00     0.117 A 
ATOM     34  C   UNL     1      22.691   7.297  55.138  1.00  0.00     0.077 A 
ATOM     35  C   UNL     1      22.782   8.430  54.409  1.00  0.00     0.049 A 
BRANCH  34  36
ATOM     36  C   UNL     1      22.578   7.287  56.620  1.00  0.00     0.019 A 
ATOM     37  C   UNL     1      23.709   7.165  57.443  1.00  0.00     0.013 A 
ATOM     38  C   UNL     1      21.318   7.387  57.241  1.00  0.00     0.121 A 
ATOM     39  C   UNL     1      23.540   7.136  58.821  1.00  0.00     0.021 A 
ATOM     40  N   UNL     1      21.148   7.353  58.569  1.00  0.00    -0.264 NA
ATOM     41  C   UNL     1      22.249   7.260  59.333  1.00  0.00     0.111 A 
ENDBRANCH  34  36
ENDBRANCH  28  30
ENDBRANCH   6  28
TORSDOF 7
ENDMDL
MODEL 17
REMARK VINA RESULT:   -10.408      3.325     12.627
REMARK INTER + INTRA:         -13.637
REMARK INTER:                 -12.496
REMARK INTRA:                  -1.140
REMARK CONF_INDEPENDENT:        2.088
REMARK UNBOUND:                -1.140
REMARK SMILES Cc1cn(-c2cc(NC(=O)c3ccc(C)c(Nc4nccc(-c5cccnc5)n4)c3)cc(C(F)(F)F)c2)cn1
REMARK SMILES IDX 11 1 12 2 13 3 14 4 15 5 16 6 30 7 9 8 10 9 8 10 7 12 6 13
REMARK SMILES IDX 31 14 5 15 32 16 37 17 4 18 3 19 38 20 2 21 39 22 1 23 33 24
REMARK SMILES IDX 34 25 35 26 36 27 17 28 18 30 19 31 29 32 20 33 22 34 21 35
REMARK SMILES IDX 23 36 24 37 28 38 25 39 27 40 26 41
REMARK H PARENT 8 11 17 29
ROOT
ATOM      1  C   UNL     1      25.683   3.715  51.578  1.00  0.00     0.042 A 
ATOM      2  C   UNL     1      25.202   3.511  50.277  1.00  0.00     0.014 A 
ATOM      3  C   UNL     1      24.294   4.393  49.690  1.00  0.00     0.006 A 
ATOM      4  C   UNL     1      23.768   5.460  50.401  1.00  0.00    -0.027 A 
ATOM      5  C   UNL     1      22.773   6.411  49.751  1.00  0.00     0.046 C 
ATOM      6  C   UNL     1      24.164   5.609  51.729  1.00  0.00     0.045 A 
ATOM      7  C   UNL     1      25.095   4.727  52.291  1.00  0.00     0.040 A 
ENDROOT
BRANCH   1   8
ATOM      8  C   UNL     1      26.542   2.770  52.319  1.00  0.00     0.255 C 
ATOM      9  O   UNL     1      26.133   2.440  53.405  1.00  0.00    -0.269 OA
ATOM     10  N   UNL     1      27.531   2.195  51.618  1.00  0.00    -0.322 N 
ATOM     11  H   UNL     1      27.655   2.505  50.644  1.00  0.00     0.170 HD
BRANCH  10  12
ATOM     12  C   UNL     1      28.402   1.219  52.085  1.00  0.00     0.044 A 
ATOM     13  C   UNL     1      29.516   0.808  51.312  1.00  0.00     0.052 A 
ATOM     14  C   UNL     1      28.130   0.530  53.287  1.00  0.00     0.039 A 
ATOM     15  C   UNL     1      30.404  -0.165  51.778  1.00  0.00     0.049 A 
ATOM     16  C   UNL     1      29.048  -0.446  53.771  1.00  0.00     0.060 A 
ATOM     17  C   UNL     1      30.150  -0.800  52.990  1.00  0.00     0.039 A 
BRANCH  15  18
ATOM     18  N   UNL     1      31.533  -0.549  51.039  1.00  0.00    -0.306 N 
ATOM     19  C   UNL     1      32.835  -0.058  51.111  1.00  0.00     0.116 A 
ATOM     20  C   UNL     1      31.568  -1.424  50.027  1.00  0.00     0.204 A 
ATOM     21  C   UNL     1      33.568  -0.663  50.151  1.00  0.00     0.056 A 
ATOM     22  N   UNL     1      32.765  -1.538  49.505  1.00  0.00    -0.242 NA
ATOM     23  C   UNL     1      35.035  -0.477  49.846  1.00  0.00     0.068 C 
ENDBRANCH  15  18
BRANCH  16  24
ATOM     24  C   UNL     1      28.766  -1.117  55.076  1.00  0.00     0.416 C 
ATOM     25  F   UNL     1      27.927  -2.169  55.006  1.00  0.00    -0.166 F 
ATOM     26  F   UNL     1      29.864  -1.673  55.574  1.00  0.00    -0.166 F 
ATOM     27  F   UNL     1      28.161  -0.292  55.957  1.00  0.00    -0.166 F 
ENDBRANCH  16  24
ENDBRANCH  10  12
ENDBRANCH   1   8
BRANCH   6  28
ATOM     28  N   UNL     1      23.775   6.768  52.415  1.00  0.00    -0.324 N 
ATOM     29  H   UNL     1      24.062   7.695  52.072  1.00  0.00     0.170 HD
BRANCH  28  30
ATOM     30  C   UNL     1      22.994   6.654  53.566  1.00  0.00     0.227 A 
ATOM     31  N   UNL     1      23.142   5.828  54.595  1.00  0.00    -0.221 NA
ATOM     32  N   UNL     1      21.949   7.513  53.442  1.00  0.00    -0.213 NA
ATOM     33  C   UNL     1      22.212   5.898  55.566  1.00  0.00     0.117 A 
ATOM     34  C   UNL     1      21.033   7.523  54.418  1.00  0.00     0.077 A 
ATOM     35  C   UNL     1      21.149   6.715  55.493  1.00  0.00     0.049 A 
BRANCH  34  36
ATOM     36  C   UNL     1      19.930   8.505  54.252  1.00  0.00     0.019 A 
ATOM     37  C   UNL     1      18.792   8.479  55.075  1.00  0.00     0.013 A 
ATOM     38  C   UNL     1      19.991   9.487  53.244  1.00  0.00     0.121 A 
ATOM     39  C   UNL     1      17.780   9.405  54.857  1.00  0.00     0.021 A 
ATOM     40  N   UNL     1      19.015  10.377  53.024  1.00  0.00    -0.264 NA
ATOM     41  C   UNL     1      17.951  10.346  53.842  1.00  0.00     0.111 A 
ENDBRANCH  34  36
ENDBRANCH  28  30
ENDBRANCH   6  28
TORSDOF 7
ENDMDL
MODEL 18
REMARK VINA RESULT:   -10.373      3.427     11.133
REMARK INTER + INTRA:         -13.732
REMARK INTER:                 -12.461
REMARK INTRA:                  -1.271
REMARK CONF_INDEPENDENT:        2.088
REMARK UNBOUND:                -1.271
REMARK SMILES Cc1cn(-c2cc(NC(=O)c3ccc(C)c(Nc4nccc(-c5cccnc5)n4)c3)cc(C(F)(F)F)c2)cn1
REMARK SMILES IDX 11 1 12 2 13 3 14 4 15 5 16 6 30 7 9 8 10 9 8 10 7 12 6 13
REMARK SMILES IDX 31 14 5 15 32 16 37 17 4 18 3 19 38 20 2 21 39 22 1 23 33 24
REMARK SMILES IDX 34 25 35 26 36 27 17 28 18 30 19 31 29 32 20 33 22 34 21 35
REMARK SMILES IDX 23 36 24 37 28 38 25 39 27 40 26 41
REMARK H PARENT 8 11 17 29
ROOT
ATOM      1  C   UNL     1      25.602   3.794  51.237  1.00  0.00     0.042 A 
ATOM      2  C   UNL     1      25.342   3.597  49.872  1.00  0.00     0.014 A 
ATOM      3  C   UNL     1      24.418   4.386  49.186  1.00  0.00     0.006 A 
ATOM      4  C   UNL     1      23.659   5.341  49.845  1.00  0.00    -0.027 A 
ATOM      5  C   UNL     1      22.649   6.189  49.086  1.00  0.00     0.046 C 
ATOM      6  C   UNL     1      23.838   5.471  51.222  1.00  0.00     0.045 A 
ATOM      7  C   UNL     1      24.789   4.686  51.887  1.00  0.00     0.040 A 
ENDROOT
BRANCH   1   8
ATOM      8  C   UNL     1      26.464   2.928  52.065  1.00  0.00     0.255 C 
ATOM      9  O   UNL     1      26.041   2.678  53.167  1.00  0.00    -0.269 OA
ATOM     10  N   UNL     1      27.476   2.320  51.429  1.00  0.00    -0.322 N 
ATOM     11  H   UNL     1      27.613   2.554  50.436  1.00  0.00     0.170 HD
BRANCH  10  12
ATOM     12  C   UNL     1      28.357   1.403  51.989  1.00  0.00     0.044 A 
ATOM     13  C   UNL     1      29.569   1.067  51.336  1.00  0.00     0.052 A 
ATOM     14  C   UNL     1      28.009   0.694  53.160  1.00  0.00     0.039 A 
ATOM     15  C   UNL     1      30.466   0.153  51.896  1.00  0.00     0.049 A 
ATOM     16  C   UNL     1      28.934  -0.220  53.740  1.00  0.00     0.060 A 
ATOM     17  C   UNL     1      30.132  -0.499  53.078  1.00  0.00     0.039 A 
BRANCH  15  18
ATOM     18  N   UNL     1      31.688  -0.154  51.278  1.00  0.00    -0.306 N 
ATOM     19  C   UNL     1      31.980  -1.172  50.373  1.00  0.00     0.116 A 
ATOM     20  C   UNL     1      32.871   0.427  51.510  1.00  0.00     0.204 A 
ATOM     21  C   UNL     1      33.305  -1.139  50.113  1.00  0.00     0.056 A 
ATOM     22  N   UNL     1      33.839  -0.111  50.809  1.00  0.00    -0.242 NA
ATOM     23  C   UNL     1      34.092  -2.029  49.181  1.00  0.00     0.068 C 
ENDBRANCH  15  18
BRANCH  16  24
ATOM     24  C   UNL     1      28.564  -0.911  55.012  1.00  0.00     0.416 C 
ATOM     25  F   UNL     1      27.712  -1.946  54.871  1.00  0.00    -0.166 F 
ATOM     26  F   UNL     1      29.621  -1.497  55.562  1.00  0.00    -0.166 F 
ATOM     27  F   UNL     1      27.923  -0.093  55.872  1.00  0.00    -0.166 F 
ENDBRANCH  16  24
ENDBRANCH  10  12
ENDBRANCH   1   8
BRANCH   6  28
ATOM     28  N   UNL     1      23.206   6.534  51.879  1.00  0.00    -0.324 N 
ATOM     29  H   UNL     1      23.020   7.416  51.380  1.00  0.00     0.170 HD
BRANCH  28  30
ATOM     30  C   UNL     1      22.828   6.388  53.215  1.00  0.00     0.227 A 
ATOM     31  N   UNL     1      21.616   6.203  53.722  1.00  0.00    -0.221 NA
ATOM     32  N   UNL     1      23.940   6.549  53.977  1.00  0.00    -0.213 NA
ATOM     33  C   UNL     1      21.524   6.138  55.064  1.00  0.00     0.117 A 
ATOM     34  C   UNL     1      23.794   6.508  55.307  1.00  0.00     0.077 A 
ATOM     35  C   UNL     1      22.584   6.304  55.870  1.00  0.00     0.049 A 
BRANCH  34  36
ATOM     36  C   UNL     1      25.046   6.654  56.095  1.00  0.00     0.019 A 
ATOM     37  C   UNL     1      25.022   7.015  57.452  1.00  0.00     0.013 A 
ATOM     38  C   UNL     1      26.301   6.446  55.490  1.00  0.00     0.121 A 
ATOM     39  C   UNL     1      26.225   7.162  58.132  1.00  0.00     0.021 A 
ATOM     40  N   UNL     1      27.463   6.593  56.138  1.00  0.00    -0.264 NA
ATOM     41  C   UNL     1      27.411   6.915  57.441  1.00  0.00     0.111 A 
ENDBRANCH  34  36
ENDBRANCH  28  30
ENDBRANCH   6  28
TORSDOF 7
ENDMDL
MODEL 19
REMARK VINA RESULT:   -10.352      4.585      7.392
REMARK INTER + INTRA:         -13.643
REMARK INTER:                 -12.440
REMARK INTRA:                  -1.203
REMARK CONF_INDEPENDENT:        2.088
REMARK UNBOUND:                -1.203
REMARK SMILES Cc1cn(-c2cc(NC(=O)c3ccc(C)c(Nc4nccc(-c5cccnc5)n4)c3)cc(C(F)(F)F)c2)cn1
REMARK SMILES IDX 11 1 12 2 13 3 14 4 15 5 16 6 30 7 9 8 10 9 8 10 7 12 6 13
REMARK SMILES IDX 31 14 5 15 32 16 37 17 4 18 3 19 38 20 2 21 39 22 1 23 33 24
REMARK SMILES IDX 34 25 35 26 36 27 17 28 18 30 19 31 29 32 20 33 22 34 21 35
REMARK SMILES IDX 23 36 24 37 28 38 25 39 27 40 26 41
REMARK H PARENT 8 11 17 29
ROOT
ATOM      1  C   UNL     1      23.262   4.920  52.771  1.00  0.00     0.042 A 
ATOM      2  C   UNL     1      22.851   5.544  51.583  1.00  0.00     0.014 A 
ATOM      3  C   UNL     1      23.323   5.121  50.339  1.00  0.00     0.006 A 
ATOM      4  C   UNL     1      24.279   4.124  50.235  1.00  0.00    -0.027 A 
ATOM      5  C   UNL     1      24.790   3.678  48.872  1.00  0.00     0.046 C 
ATOM      6  C   UNL     1      24.768   3.571  51.417  1.00  0.00     0.045 A 
ATOM      7  C   UNL     1      24.264   3.992  52.654  1.00  0.00     0.040 A 
ENDROOT
BRANCH   1   8
ATOM      8  C   UNL     1      22.915   5.381  54.129  1.00  0.00     0.255 C 
ATOM      9  O   UNL     1      21.986   4.811  54.648  1.00  0.00    -0.269 OA
ATOM     10  N   UNL     1      23.805   6.187  54.726  1.00  0.00    -0.322 N 
ATOM     11  H   UNL     1      24.623   6.473  54.170  1.00  0.00     0.170 HD
BRANCH  10  12
ATOM     12  C   UNL     1      23.725   6.671  56.026  1.00  0.00     0.044 A 
ATOM     13  C   UNL     1      24.675   6.288  57.005  1.00  0.00     0.052 A 
ATOM     14  C   UNL     1      22.626   7.460  56.432  1.00  0.00     0.039 A 
ATOM     15  C   UNL     1      24.608   6.777  58.312  1.00  0.00     0.049 A 
ATOM     16  C   UNL     1      22.572   7.975  57.758  1.00  0.00     0.060 A 
ATOM     17  C   UNL     1      23.547   7.596  58.684  1.00  0.00     0.039 A 
BRANCH  15  18
ATOM     18  N   UNL     1      25.568   6.437  59.277  1.00  0.00    -0.306 N 
ATOM     19  C   UNL     1      25.376   5.954  60.570  1.00  0.00     0.116 A 
ATOM     20  C   UNL     1      26.893   6.599  59.181  1.00  0.00     0.204 A 
ATOM     21  C   UNL     1      26.585   5.850  61.165  1.00  0.00     0.056 A 
ATOM     22  N   UNL     1      27.523   6.227  60.269  1.00  0.00    -0.242 NA
ATOM     23  C   UNL     1      26.895   5.356  62.558  1.00  0.00     0.068 C 
ENDBRANCH  15  18
BRANCH  16  24
ATOM     24  C   UNL     1      21.428   8.857  58.143  1.00  0.00     0.416 C 
ATOM     25  F   UNL     1      21.394  10.051  57.519  1.00  0.00    -0.166 F 
ATOM     26  F   UNL     1      20.269   8.322  57.777  1.00  0.00    -0.166 F 
ATOM     27  F   UNL     1      21.453   9.187  59.451  1.00  0.00    -0.166 F 
ENDBRANCH  16  24
ENDBRANCH  10  12
ENDBRANCH   1   8
BRANCH   6  28
ATOM     28  N   UNL     1      25.611   2.455  51.333  1.00  0.00    -0.324 N 
ATOM     29  H   UNL     1      25.266   1.574  50.925  1.00  0.00     0.170 HD
BRANCH  28  30
ATOM     30  C   UNL     1      26.921   2.546  51.806  1.00  0.00     0.227 A 
ATOM     31  N   UNL     1      27.801   3.525  51.636  1.00  0.00    -0.221 NA
ATOM     32  N   UNL     1      27.212   1.382  52.441  1.00  0.00    -0.213 NA
ATOM     33  C   UNL     1      29.024   3.339  52.167  1.00  0.00     0.117 A 
ATOM     34  C   UNL     1      28.451   1.229  52.923  1.00  0.00     0.077 A 
ATOM     35  C   UNL     1      29.376   2.204  52.792  1.00  0.00     0.049 A 
BRANCH  34  36
ATOM     36  C   UNL     1      28.708  -0.047  53.640  1.00  0.00     0.019 A 
ATOM     37  C   UNL     1      27.900  -0.467  54.708  1.00  0.00     0.013 A 
ATOM     38  C   UNL     1      29.791  -0.869  53.270  1.00  0.00     0.121 A 
ATOM     39  C   UNL     1      28.203  -1.657  55.357  1.00  0.00     0.021 A 
ATOM     40  N   UNL     1      30.093  -2.013  53.896  1.00  0.00    -0.264 NA
ATOM     41  C   UNL     1      29.288  -2.404  54.898  1.00  0.00     0.111 A 
ENDBRANCH  34  36
ENDBRANCH  28  30
ENDBRANCH   6  28
TORSDOF 7
ENDMDL
MODEL 20
REMARK VINA RESULT:   -10.258      8.064     14.774
REMARK INTER + INTRA:         -13.680
REMARK INTER:                 -12.346
REMARK INTRA:                  -1.334
REMARK CONF_INDEPENDENT:        2.088
REMARK UNBOUND:                -1.334
REMARK SMILES Cc1cn(-c2cc(NC(=O)c3ccc(C)c(Nc4nccc(-c5cccnc5)n4)c3)cc(C(F)(F)F)c2)cn1
REMARK SMILES IDX 11 1 12 2 13 3 14 4 15 5 16 6 30 7 9 8 10 9 8 10 7 12 6 13
REMARK SMILES IDX 31 14 5 15 32 16 37 17 4 18 3 19 38 20 2 21 39 22 1 23 33 24
REMARK SMILES IDX 34 25 35 26 36 27 17 28 18 30 19 31 29 32 20 33 22 34 21 35
REMARK SMILES IDX 23 36 24 37 28 38 25 39 27 40 26 41
REMARK H PARENT 8 11 17 29
ROOT
ATOM      1  C   UNL     1      36.109  -1.268  49.169  1.00  0.00     0.042 A 
ATOM      2  C   UNL     1      35.550  -2.552  49.089  1.00  0.00     0.014 A 
ATOM      3  C   UNL     1      34.205  -2.779  49.387  1.00  0.00     0.006 A 
ATOM      4  C   UNL     1      33.390  -1.760  49.852  1.00  0.00    -0.027 A 
ATOM      5  C   UNL     1      31.927  -2.024  50.180  1.00  0.00     0.046 C 
ATOM      6  C   UNL     1      33.966  -0.503  50.033  1.00  0.00     0.045 A 
ATOM      7  C   UNL     1      35.311  -0.290  49.705  1.00  0.00     0.040 A 
ENDROOT
BRANCH   1   8
ATOM      8  C   UNL     1      37.542  -0.960  48.998  1.00  0.00     0.255 C 
ATOM      9  O   UNL     1      37.801   0.198  48.775  1.00  0.00    -0.269 OA
ATOM     10  N   UNL     1      38.402  -1.927  49.352  1.00  0.00    -0.322 N 
ATOM     11  H   UNL     1      37.997  -2.826  49.650  1.00  0.00     0.170 HD
BRANCH  10  12
ATOM     12  C   UNL     1      39.787  -1.828  49.352  1.00  0.00     0.044 A 
ATOM     13  C   UNL     1      40.537  -2.123  50.518  1.00  0.00     0.052 A 
ATOM     14  C   UNL     1      40.471  -1.314  48.228  1.00  0.00     0.039 A 
ATOM     15  C   UNL     1      41.932  -2.035  50.525  1.00  0.00     0.049 A 
ATOM     16  C   UNL     1      41.893  -1.247  48.231  1.00  0.00     0.060 A 
ATOM     17  C   UNL     1      42.596  -1.576  49.392  1.00  0.00     0.039 A 
BRANCH  15  18
ATOM     18  N   UNL     1      42.686  -2.365  51.662  1.00  0.00    -0.306 N 
ATOM     19  C   UNL     1      42.520  -3.431  52.543  1.00  0.00     0.116 A 
ATOM     20  C   UNL     1      43.687  -1.653  52.194  1.00  0.00     0.204 A 
ATOM     21  C   UNL     1      43.424  -3.301  53.539  1.00  0.00     0.056 A 
ATOM     22  N   UNL     1      44.166  -2.200  53.284  1.00  0.00    -0.242 NA
ATOM     23  C   UNL     1      43.647  -4.218  54.717  1.00  0.00     0.068 C 
ENDBRANCH  15  18
BRANCH  16  24
ATOM     24  C   UNL     1      42.594  -0.756  47.005  1.00  0.00     0.416 C 
ATOM     25  F   UNL     1      43.696  -0.016  47.238  1.00  0.00    -0.166 F 
ATOM     26  F   UNL     1      43.086  -1.768  46.300  1.00  0.00    -0.166 F 
ATOM     27  F   UNL     1      41.818   0.061  46.263  1.00  0.00    -0.166 F 
ENDBRANCH  16  24
ENDBRANCH  10  12
ENDBRANCH   1   8
BRANCH   6  28
ATOM     28  N   UNL     1      33.129   0.575  50.345  1.00  0.00    -0.324 N 
ATOM     29  H   UNL     1      32.626   1.075  49.599  1.00  0.00     0.170 HD
BRANCH  28  30
ATOM     30  C   UNL     1      32.982   0.968  51.677  1.00  0.00     0.227 A 
ATOM     31  N   UNL     1      33.700   1.841  52.372  1.00  0.00    -0.221 NA
ATOM     32  N   UNL     1      31.983   0.224  52.218  1.00  0.00    -0.213 NA
ATOM     33  C   UNL     1      33.370   2.002  53.668  1.00  0.00     0.117 A 
ATOM     34  C   UNL     1      31.713   0.396  53.517  1.00  0.00     0.077 A 
ATOM     35  C   UNL     1      32.403   1.286  54.262  1.00  0.00     0.049 A 
BRANCH  34  36
ATOM     36  C   UNL     1      30.588  -0.416  54.052  1.00  0.00     0.019 A 
ATOM     37  C   UNL     1      29.525   0.174  54.755  1.00  0.00     0.013 A 
ATOM     38  C   UNL     1      30.569  -1.813  53.878  1.00  0.00     0.121 A 
ATOM     39  C   UNL     1      28.514  -0.638  55.254  1.00  0.00     0.021 A 
ATOM     40  N   UNL     1      29.601  -2.601  54.364  1.00  0.00    -0.264 NA
ATOM     41  C   UNL     1      28.584  -2.009  55.010  1.00  0.00     0.111 A 
ENDBRANCH  34  36
ENDBRANCH  28  30
ENDBRANCH   6  28
TORSDOF 7
ENDMDL
