MODEL 1
REMARK VINA RESULT:   -15.144      0.000      0.000
REMARK INTER + INTRA:         -18.414
REMARK INTER:                 -17.232
REMARK INTRA:                  -1.181
REMARK CONF_INDEPENDENT:        2.088
REMARK UNBOUND:                -1.181
REMARK SMILES Cc1cn(-c2cc(NC(=O)c3ccc(C)c(Nc4nccc(-c5cccnc5)n4)c3)cc(C(F)(F)F)c2)cn1
REMARK SMILES IDX 11 1 12 2 13 3 14 4 15 5 16 6 30 7 9 8 10 9 8 10 7 12 6 13
REMARK SMILES IDX 31 14 5 15 32 16 37 17 4 18 3 19 38 20 2 21 39 22 1 23 33 24
REMARK SMILES IDX 34 25 35 26 36 27 17 28 18 30 19 31 29 32 20 33 22 34 21 35
REMARK SMILES IDX 23 36 24 37 28 38 25 39 27 40 26 41
REMARK H PARENT 8 11 17 29
ROOT
ATOM      1  C   UNL     1      27.980   1.869  53.222  1.00  0.00     0.042 A 
ATOM      2  C   UNL     1      27.704   1.358  54.499  1.00  0.00     0.014 A 
ATOM      3  C   UNL     1      28.425   0.285  55.024  1.00  0.00     0.006 A 
ATOM      4  C   UNL     1      29.387  -0.372  54.272  1.00  0.00    -0.027 A 
ATOM      5  C   UNL     1      30.160  -1.546  54.855  1.00  0.00     0.046 C 
ATOM      6  C   UNL     1      29.594   0.066  52.965  1.00  0.00     0.045 A 
ATOM      7  C   UNL     1      28.877   1.161  52.465  1.00  0.00     0.040 A 
ENDROOT
BRANCH   1   8
ATOM      8  C   UNL     1      27.188   2.912  52.541  1.00  0.00     0.255 C 
ATOM      9  O   UNL     1      27.539   3.180  51.418  1.00  0.00    -0.269 OA
ATOM     10  N   UNL     1      26.036   3.260  53.133  1.00  0.00    -0.322 N 
ATOM     11  H   UNL     1      25.827   2.825  54.043  1.00  0.00     0.170 HD
BRANCH  10  12
ATOM     12  C   UNL     1      25.098   4.154  52.631  1.00  0.00     0.044 A 
ATOM     13  C   UNL     1      24.175   4.799  53.491  1.00  0.00     0.052 A 
ATOM     14  C   UNL     1      24.964   4.347  51.239  1.00  0.00     0.039 A 
ATOM     15  C   UNL     1      23.235   5.707  52.997  1.00  0.00     0.049 A 
ATOM     16  C   UNL     1      24.020   5.290  50.739  1.00  0.00     0.060 A 
ATOM     17  C   UNL     1      23.150   5.927  51.626  1.00  0.00     0.039 A 
BRANCH  15  18
ATOM     18  N   UNL     1      22.345   6.383  53.845  1.00  0.00    -0.306 N 
ATOM     19  C   UNL     1      22.029   6.115  55.176  1.00  0.00     0.116 A 
ATOM     20  C   UNL     1      21.532   7.392  53.513  1.00  0.00     0.204 A 
ATOM     21  C   UNL     1      21.058   6.972  55.560  1.00  0.00     0.056 A 
ATOM     22  N   UNL     1      20.784   7.785  54.515  1.00  0.00    -0.242 NA
ATOM     23  C   UNL     1      20.401   7.085  56.915  1.00  0.00     0.068 C 
ENDBRANCH  15  18
BRANCH  16  24
ATOM     24  C   UNL     1      23.942   5.519  49.265  1.00  0.00     0.416 C 
ATOM     25  F   UNL     1      24.618   6.596  48.819  1.00  0.00    -0.166 F 
ATOM     26  F   UNL     1      24.525   4.531  48.596  1.00  0.00    -0.166 F 
ATOM     27  F   UNL     1      22.679   5.748  48.848  1.00  0.00    -0.166 F 
ENDBRANCH  16  24
ENDBRANCH  10  12
ENDBRANCH   1   8
BRANCH   6  28
ATOM     28  N   UNL     1      30.668  -0.472  52.244  1.00  0.00    -0.324 N 
ATOM     29  H   UNL     1      30.524  -1.284  51.627  1.00  0.00     0.170 HD
BRANCH  28  30
ATOM     30  C   UNL     1      31.935   0.101  52.369  1.00  0.00     0.227 A 
ATOM     31  N   UNL     1      32.338   1.057  53.197  1.00  0.00    -0.221 NA
ATOM     32  N   UNL     1      32.728  -0.441  51.410  1.00  0.00    -0.213 NA
ATOM     33  C   UNL     1      33.617   1.461  53.077  1.00  0.00     0.117 A 
ATOM     34  C   UNL     1      33.982   0.016  51.309  1.00  0.00     0.077 A 
ATOM     35  C   UNL     1      34.445   0.975  52.140  1.00  0.00     0.049 A 
BRANCH  34  36
ATOM     36  C   UNL     1      34.820  -0.633  50.267  1.00  0.00     0.019 A 
ATOM     37  C   UNL     1      36.071  -0.113  49.900  1.00  0.00     0.013 A 
ATOM     38  C   UNL     1      34.368  -1.792  49.605  1.00  0.00     0.121 A 
ATOM     39  C   UNL     1      36.800  -0.747  48.902  1.00  0.00     0.021 A 
ATOM     40  N   UNL     1      35.063  -2.403  48.637  1.00  0.00    -0.264 NA
ATOM     41  C   UNL     1      36.267  -1.898  48.323  1.00  0.00     0.111 A 
ENDBRANCH  34  36
ENDBRANCH  28  30
ENDBRANCH   6  28
TORSDOF 7
ENDMDL
MODEL 2
REMARK VINA RESULT:   -13.727      2.286      3.603
REMARK INTER + INTRA:         -17.040
REMARK INTER:                 -15.815
REMARK INTRA:                  -1.225
REMARK CONF_INDEPENDENT:        2.088
REMARK UNBOUND:                -1.225
REMARK SMILES Cc1cn(-c2cc(NC(=O)c3ccc(C)c(Nc4nccc(-c5cccnc5)n4)c3)cc(C(F)(F)F)c2)cn1
REMARK SMILES IDX 11 1 12 2 13 3 14 4 15 5 16 6 30 7 9 8 10 9 8 10 7 12 6 13
REMARK SMILES IDX 31 14 5 15 32 16 37 17 4 18 3 19 38 20 2 21 39 22 1 23 33 24
REMARK SMILES IDX 34 25 35 26 36 27 17 28 18 30 19 31 29 32 20 33 22 34 21 35
REMARK SMILES IDX 23 36 24 37 28 38 25 39 27 40 26 41
REMARK H PARENT 8 11 17 29
ROOT
ATOM      1  C   UNL     1      28.376   1.487  53.373  1.00  0.00     0.042 A 
ATOM      2  C   UNL     1      28.123   0.879  54.612  1.00  0.00     0.014 A 
ATOM      3  C   UNL     1      28.849  -0.235  55.036  1.00  0.00     0.006 A 
ATOM      4  C   UNL     1      29.791  -0.835  54.215  1.00  0.00    -0.027 A 
ATOM      5  C   UNL     1      30.569  -2.054  54.688  1.00  0.00     0.046 C 
ATOM      6  C   UNL     1      29.973  -0.298  52.942  1.00  0.00     0.045 A 
ATOM      7  C   UNL     1      29.252   0.836  52.544  1.00  0.00     0.040 A 
ENDROOT
BRANCH   1   8
ATOM      8  C   UNL     1      27.576   2.583  52.793  1.00  0.00     0.255 C 
ATOM      9  O   UNL     1      27.849   2.879  51.655  1.00  0.00    -0.269 OA
ATOM     10  N   UNL     1      26.487   2.952  53.485  1.00  0.00    -0.322 N 
ATOM     11  H   UNL     1      26.332   2.491  54.393  1.00  0.00     0.170 HD
BRANCH  10  12
ATOM     12  C   UNL     1      25.550   3.898  53.089  1.00  0.00     0.044 A 
ATOM     13  C   UNL     1      25.172   4.022  51.729  1.00  0.00     0.052 A 
ATOM     14  C   UNL     1      25.042   4.836  54.014  1.00  0.00     0.039 A 
ATOM     15  C   UNL     1      24.223   4.964  51.323  1.00  0.00     0.049 A 
ATOM     16  C   UNL     1      24.059   5.780  53.602  1.00  0.00     0.060 A 
ATOM     17  C   UNL     1      23.693   5.849  52.256  1.00  0.00     0.039 A 
BRANCH  15  18
ATOM     18  N   UNL     1      23.812   5.067  49.985  1.00  0.00    -0.306 N 
ATOM     19  C   UNL     1      22.638   5.615  49.470  1.00  0.00     0.116 A 
ATOM     20  C   UNL     1      24.437   4.567  48.914  1.00  0.00     0.204 A 
ATOM     21  C   UNL     1      22.631   5.417  48.134  1.00  0.00     0.056 A 
ATOM     22  N   UNL     1      23.781   4.788  47.801  1.00  0.00    -0.242 NA
ATOM     23  C   UNL     1      21.583   5.847  47.136  1.00  0.00     0.068 C 
ENDBRANCH  15  18
BRANCH  16  24
ATOM     24  C   UNL     1      23.495   6.723  54.615  1.00  0.00     0.416 C 
ATOM     25  F   UNL     1      24.398   7.524  55.213  1.00  0.00    -0.166 F 
ATOM     26  F   UNL     1      22.680   7.603  54.046  1.00  0.00    -0.166 F 
ATOM     27  F   UNL     1      22.916   6.077  55.649  1.00  0.00    -0.166 F 
ENDBRANCH  16  24
ENDBRANCH  10  12
ENDBRANCH   1   8
BRANCH   6  28
ATOM     28  N   UNL     1      31.028  -0.782  52.159  1.00  0.00    -0.324 N 
ATOM     29  H   UNL     1      30.877  -1.573  51.516  1.00  0.00     0.170 HD
BRANCH  28  30
ATOM     30  C   UNL     1      32.287  -0.186  52.257  1.00  0.00     0.227 A 
ATOM     31  N   UNL     1      32.668   0.832  53.018  1.00  0.00    -0.221 NA
ATOM     32  N   UNL     1      33.098  -0.785  51.347  1.00  0.00    -0.213 NA
ATOM     33  C   UNL     1      33.944   1.243  52.885  1.00  0.00     0.117 A 
ATOM     34  C   UNL     1      34.348  -0.321  51.229  1.00  0.00     0.077 A 
ATOM     35  C   UNL     1      34.789   0.701  51.993  1.00  0.00     0.049 A 
BRANCH  34  36
ATOM     36  C   UNL     1      35.206  -1.032  50.246  1.00  0.00     0.019 A 
ATOM     37  C   UNL     1      36.548  -0.671  50.044  1.00  0.00     0.013 A 
ATOM     38  C   UNL     1      34.685  -2.089  49.473  1.00  0.00     0.121 A 
ATOM     39  C   UNL     1      37.295  -1.355  49.093  1.00  0.00     0.021 A 
ATOM     40  N   UNL     1      35.398  -2.746  48.550  1.00  0.00    -0.264 NA
ATOM     41  C   UNL     1      36.685  -2.397  48.396  1.00  0.00     0.111 A 
ENDBRANCH  34  36
ENDBRANCH  28  30
ENDBRANCH   6  28
TORSDOF 7
ENDMDL
MODEL 3
REMARK VINA RESULT:   -12.522      1.520      3.534
REMARK INTER + INTRA:         -16.182
REMARK INTER:                 -14.611
REMARK INTRA:                  -1.572
REMARK CONF_INDEPENDENT:        2.088
REMARK UNBOUND:                -1.572
REMARK SMILES Cc1cn(-c2cc(NC(=O)c3ccc(C)c(Nc4nccc(-c5cccnc5)n4)c3)cc(C(F)(F)F)c2)cn1
REMARK SMILES IDX 11 1 12 2 13 3 14 4 15 5 16 6 30 7 9 8 10 9 8 10 7 12 6 13
REMARK SMILES IDX 31 14 5 15 32 16 37 17 4 18 3 19 38 20 2 21 39 22 1 23 33 24
REMARK SMILES IDX 34 25 35 26 36 27 17 28 18 30 19 31 29 32 20 33 22 34 21 35
REMARK SMILES IDX 23 36 24 37 28 38 25 39 27 40 26 41
REMARK H PARENT 8 11 17 29
ROOT
ATOM      1  C   UNL     1      27.662   1.698  52.982  1.00  0.00     0.042 A 
ATOM      2  C   UNL     1      27.348   1.089  54.206  1.00  0.00     0.014 A 
ATOM      3  C   UNL     1      28.048  -0.028  54.663  1.00  0.00     0.006 A 
ATOM      4  C   UNL     1      29.026  -0.630  53.888  1.00  0.00    -0.027 A 
ATOM      5  C   UNL     1      29.776  -1.853  54.396  1.00  0.00     0.046 C 
ATOM      6  C   UNL     1      29.271  -0.092  52.625  1.00  0.00     0.045 A 
ATOM      7  C   UNL     1      28.575   1.045  52.195  1.00  0.00     0.040 A 
ENDROOT
BRANCH   1   8
ATOM      8  C   UNL     1      26.895   2.798  52.366  1.00  0.00     0.255 C 
ATOM      9  O   UNL     1      27.172   3.044  51.217  1.00  0.00    -0.269 OA
ATOM     10  N   UNL     1      25.822   3.226  53.048  1.00  0.00    -0.322 N 
ATOM     11  H   UNL     1      25.657   2.804  53.973  1.00  0.00     0.170 HD
BRANCH  10  12
ATOM     12  C   UNL     1      24.914   4.188  52.622  1.00  0.00     0.044 A 
ATOM     13  C   UNL     1      24.060   4.840  53.545  1.00  0.00     0.052 A 
ATOM     14  C   UNL     1      24.738   4.448  51.246  1.00  0.00     0.039 A 
ATOM     15  C   UNL     1      23.150   5.816  53.127  1.00  0.00     0.049 A 
ATOM     16  C   UNL     1      23.826   5.458  50.824  1.00  0.00     0.060 A 
ATOM     17  C   UNL     1      23.024   6.099  51.771  1.00  0.00     0.039 A 
BRANCH  15  18
ATOM     18  N   UNL     1      22.329   6.498  54.038  1.00  0.00    -0.306 N 
ATOM     19  C   UNL     1      21.940   6.118  55.321  1.00  0.00     0.116 A 
ATOM     20  C   UNL     1      21.664   7.638  53.818  1.00  0.00     0.204 A 
ATOM     21  C   UNL     1      21.077   7.044  55.792  1.00  0.00     0.056 A 
ATOM     22  N   UNL     1      20.943   8.004  54.850  1.00  0.00    -0.242 NA
ATOM     23  C   UNL     1      20.399   7.081  57.141  1.00  0.00     0.068 C 
ENDBRANCH  15  18
BRANCH  16  24
ATOM     24  C   UNL     1      23.704   5.756  49.365  1.00  0.00     0.416 C 
ATOM     25  F   UNL     1      24.150   6.972  48.992  1.00  0.00    -0.166 F 
ATOM     26  F   UNL     1      24.475   4.948  48.647  1.00  0.00    -0.166 F 
ATOM     27  F   UNL     1      22.421   5.750  48.946  1.00  0.00    -0.166 F 
ENDBRANCH  16  24
ENDBRANCH  10  12
ENDBRANCH   1   8
BRANCH   6  28
ATOM     28  N   UNL     1      30.361  -0.580  51.893  1.00  0.00    -0.324 N 
ATOM     29  H   UNL     1      30.235  -1.357  51.229  1.00  0.00     0.170 HD
BRANCH  28  30
ATOM     30  C   UNL     1      31.621  -0.004  52.071  1.00  0.00     0.227 A 
ATOM     31  N   UNL     1      32.760  -0.289  51.453  1.00  0.00    -0.221 NA
ATOM     32  N   UNL     1      31.524   0.893  53.085  1.00  0.00    -0.213 NA
ATOM     33  C   UNL     1      33.851   0.394  51.851  1.00  0.00     0.117 A 
ATOM     34  C   UNL     1      32.641   1.524  53.466  1.00  0.00     0.077 A 
ATOM     35  C   UNL     1      33.821   1.282  52.857  1.00  0.00     0.049 A 
BRANCH  34  36
ATOM     36  C   UNL     1      32.475   2.521  54.556  1.00  0.00     0.019 A 
ATOM     37  C   UNL     1      33.364   3.597  54.709  1.00  0.00     0.013 A 
ATOM     38  C   UNL     1      31.420   2.402  55.481  1.00  0.00     0.121 A 
ATOM     39  C   UNL     1      33.175   4.484  55.761  1.00  0.00     0.021 A 
ATOM     40  N   UNL     1      31.237   3.249  56.502  1.00  0.00    -0.264 NA
ATOM     41  C   UNL     1      32.087   4.284  56.609  1.00  0.00     0.111 A 
ENDBRANCH  34  36
ENDBRANCH  28  30
ENDBRANCH   6  28
TORSDOF 7
ENDMDL
MODEL 4
REMARK VINA RESULT:   -11.911      1.440      2.067
REMARK INTER + INTRA:         -15.453
REMARK INTER:                 -13.999
REMARK INTRA:                  -1.454
REMARK CONF_INDEPENDENT:        2.088
REMARK UNBOUND:                -1.454
REMARK SMILES Cc1cn(-c2cc(NC(=O)c3ccc(C)c(Nc4nccc(-c5cccnc5)n4)c3)cc(C(F)(F)F)c2)cn1
REMARK SMILES IDX 11 1 12 2 13 3 14 4 15 5 16 6 30 7 9 8 10 9 8 10 7 12 6 13
REMARK SMILES IDX 31 14 5 15 32 16 37 17 4 18 3 19 38 20 2 21 39 22 1 23 33 24
REMARK SMILES IDX 34 25 35 26 36 27 17 28 18 30 19 31 29 32 20 33 22 34 21 35
REMARK SMILES IDX 23 36 24 37 28 38 25 39 27 40 26 41
REMARK H PARENT 8 11 17 29
ROOT
ATOM      1  C   UNL     1      27.711   1.720  53.298  1.00  0.00     0.042 A 
ATOM      2  C   UNL     1      27.065   0.504  53.569  1.00  0.00     0.014 A 
ATOM      3  C   UNL     1      27.709  -0.522  54.261  1.00  0.00     0.006 A 
ATOM      4  C   UNL     1      29.039  -0.413  54.634  1.00  0.00    -0.027 A 
ATOM      5  C   UNL     1      29.731  -1.544  55.382  1.00  0.00     0.046 C 
ATOM      6  C   UNL     1      29.717   0.752  54.277  1.00  0.00     0.045 A 
ATOM      7  C   UNL     1      29.045   1.781  53.605  1.00  0.00     0.040 A 
ENDROOT
BRANCH   1   8
ATOM      8  C   UNL     1      27.152   2.805  52.467  1.00  0.00     0.255 C 
ATOM      9  O   UNL     1      27.767   3.055  51.459  1.00  0.00    -0.269 OA
ATOM     10  N   UNL     1      25.913   3.213  52.781  1.00  0.00    -0.322 N 
ATOM     11  H   UNL     1      25.478   2.788  53.612  1.00  0.00     0.170 HD
BRANCH  10  12
ATOM     12  C   UNL     1      25.165   4.156  52.088  1.00  0.00     0.044 A 
ATOM     13  C   UNL     1      24.366   5.101  52.779  1.00  0.00     0.052 A 
ATOM     14  C   UNL     1      25.088   4.117  50.679  1.00  0.00     0.039 A 
ATOM     15  C   UNL     1      23.617   6.059  52.091  1.00  0.00     0.049 A 
ATOM     16  C   UNL     1      24.342   5.108  49.980  1.00  0.00     0.060 A 
ATOM     17  C   UNL     1      23.593   6.041  50.701  1.00  0.00     0.039 A 
BRANCH  15  18
ATOM     18  N   UNL     1      22.857   7.026  52.767  1.00  0.00    -0.306 N 
ATOM     19  C   UNL     1      22.632   8.358  52.426  1.00  0.00     0.116 A 
ATOM     20  C   UNL     1      22.253   6.885  53.953  1.00  0.00     0.204 A 
ATOM     21  C   UNL     1      21.910   8.931  53.414  1.00  0.00     0.056 A 
ATOM     22  N   UNL     1      21.656   7.984  54.344  1.00  0.00    -0.242 NA
ATOM     23  C   UNL     1      21.404  10.351  53.492  1.00  0.00     0.068 C 
ENDBRANCH  15  18
BRANCH  16  24
ATOM     24  C   UNL     1      24.327   5.079  48.486  1.00  0.00     0.416 C 
ATOM     25  F   UNL     1      25.140   5.974  47.890  1.00  0.00    -0.166 F 
ATOM     26  F   UNL     1      24.802   3.927  48.026  1.00  0.00    -0.166 F 
ATOM     27  F   UNL     1      23.111   5.374  47.979  1.00  0.00    -0.166 F 
ENDBRANCH  16  24
ENDBRANCH  10  12
ENDBRANCH   1   8
BRANCH   6  28
ATOM     28  N   UNL     1      31.008   0.954  54.782  1.00  0.00    -0.324 N 
ATOM     29  H   UNL     1      31.176   0.935  55.798  1.00  0.00     0.170 HD
BRANCH  28  30
ATOM     30  C   UNL     1      32.064   1.181  53.898  1.00  0.00     0.227 A 
ATOM     31  N   UNL     1      33.021   2.098  53.962  1.00  0.00    -0.221 NA
ATOM     32  N   UNL     1      31.919   0.323  52.855  1.00  0.00    -0.213 NA
ATOM     33  C   UNL     1      33.901   2.127  52.943  1.00  0.00     0.117 A 
ATOM     34  C   UNL     1      32.799   0.412  51.851  1.00  0.00     0.077 A 
ATOM     35  C   UNL     1      33.802   1.316  51.878  1.00  0.00     0.049 A 
BRANCH  34  36
ATOM     36  C   UNL     1      32.619  -0.571  50.751  1.00  0.00     0.019 A 
ATOM     37  C   UNL     1      31.343  -0.973  50.325  1.00  0.00     0.013 A 
ATOM     38  C   UNL     1      33.737  -1.142  50.111  1.00  0.00     0.121 A 
ATOM     39  C   UNL     1      31.236  -1.915  49.309  1.00  0.00     0.021 A 
ATOM     40  N   UNL     1      33.640  -2.056  49.137  1.00  0.00    -0.264 NA
ATOM     41  C   UNL     1      32.408  -2.403  48.732  1.00  0.00     0.111 A 
ENDBRANCH  34  36
ENDBRANCH  28  30
ENDBRANCH   6  28
TORSDOF 7
ENDMDL
MODEL 5
REMARK VINA RESULT:   -11.521      2.118      3.143
REMARK INTER + INTRA:         -14.910
REMARK INTER:                 -13.609
REMARK INTRA:                  -1.301
REMARK CONF_INDEPENDENT:        2.088
REMARK UNBOUND:                -1.301
REMARK SMILES Cc1cn(-c2cc(NC(=O)c3ccc(C)c(Nc4nccc(-c5cccnc5)n4)c3)cc(C(F)(F)F)c2)cn1
REMARK SMILES IDX 11 1 12 2 13 3 14 4 15 5 16 6 30 7 9 8 10 9 8 10 7 12 6 13
REMARK SMILES IDX 31 14 5 15 32 16 37 17 4 18 3 19 38 20 2 21 39 22 1 23 33 24
REMARK SMILES IDX 34 25 35 26 36 27 17 28 18 30 19 31 29 32 20 33 22 34 21 35
REMARK SMILES IDX 23 36 24 37 28 38 25 39 27 40 26 41
REMARK H PARENT 8 11 17 29
ROOT
ATOM      1  C   UNL     1      26.867   2.539  52.361  1.00  0.00     0.042 A 
ATOM      2  C   UNL     1      27.004   1.167  52.104  1.00  0.00     0.014 A 
ATOM      3  C   UNL     1      27.758   0.342  52.940  1.00  0.00     0.006 A 
ATOM      4  C   UNL     1      28.471   0.862  54.009  1.00  0.00    -0.027 A 
ATOM      5  C   UNL     1      29.296  -0.048  54.907  1.00  0.00     0.046 C 
ATOM      6  C   UNL     1      28.422   2.241  54.208  1.00  0.00     0.045 A 
ATOM      7  C   UNL     1      27.639   3.047  53.374  1.00  0.00     0.040 A 
ENDROOT
BRANCH   1   8
ATOM      8  C   UNL     1      26.197   3.503  51.466  1.00  0.00     0.255 C 
ATOM      9  O   UNL     1      26.398   3.340  50.287  1.00  0.00    -0.269 OA
ATOM     10  N   UNL     1      25.256   4.277  52.027  1.00  0.00    -0.322 N 
ATOM     11  H   UNL     1      25.123   4.187  53.044  1.00  0.00     0.170 HD
BRANCH  10  12
ATOM     12  C   UNL     1      24.447   5.189  51.362  1.00  0.00     0.044 A 
ATOM     13  C   UNL     1      23.776   6.217  52.070  1.00  0.00     0.052 A 
ATOM     14  C   UNL     1      24.178   5.039  49.984  1.00  0.00     0.039 A 
ATOM     15  C   UNL     1      22.967   7.145  51.408  1.00  0.00     0.049 A 
ATOM     16  C   UNL     1      23.372   5.999  49.308  1.00  0.00     0.060 A 
ATOM     17  C   UNL     1      22.753   7.015  50.040  1.00  0.00     0.039 A 
BRANCH  15  18
ATOM     18  N   UNL     1      22.332   8.192  52.094  1.00  0.00    -0.306 N 
ATOM     19  C   UNL     1      21.542   8.135  53.241  1.00  0.00     0.116 A 
ATOM     20  C   UNL     1      22.280   9.477  51.724  1.00  0.00     0.204 A 
ATOM     21  C   UNL     1      21.072   9.377  53.492  1.00  0.00     0.056 A 
ATOM     22  N   UNL     1      21.571  10.208  52.550  1.00  0.00    -0.242 NA
ATOM     23  C   UNL     1      20.191   9.823  54.633  1.00  0.00     0.068 C 
ENDBRANCH  15  18
BRANCH  16  24
ATOM     24  C   UNL     1      23.153   5.850  47.837  1.00  0.00     0.416 C 
ATOM     25  F   UNL     1      23.407   6.956  47.109  1.00  0.00    -0.166 F 
ATOM     26  F   UNL     1      24.005   4.975  47.315  1.00  0.00    -0.166 F 
ATOM     27  F   UNL     1      21.870   5.564  47.536  1.00  0.00    -0.166 F 
ENDBRANCH  16  24
ENDBRANCH  10  12
ENDBRANCH   1   8
BRANCH   6  28
ATOM     28  N   UNL     1      28.998   2.766  55.372  1.00  0.00    -0.324 N 
ATOM     29  H   UNL     1      28.414   2.967  56.196  1.00  0.00     0.170 HD
BRANCH  28  30
ATOM     30  C   UNL     1      30.372   3.016  55.406  1.00  0.00     0.227 A 
ATOM     31  N   UNL     1      31.039   3.901  56.136  1.00  0.00    -0.221 NA
ATOM     32  N   UNL     1      30.957   2.226  54.470  1.00  0.00    -0.213 NA
ATOM     33  C   UNL     1      32.369   3.967  55.941  1.00  0.00     0.117 A 
ATOM     34  C   UNL     1      32.278   2.350  54.290  1.00  0.00     0.077 A 
ATOM     35  C   UNL     1      33.003   3.223  55.021  1.00  0.00     0.049 A 
BRANCH  34  36
ATOM     36  C   UNL     1      32.876   1.439  53.280  1.00  0.00     0.019 A 
ATOM     37  C   UNL     1      32.078   0.632  52.453  1.00  0.00     0.013 A 
ATOM     38  C   UNL     1      34.274   1.351  53.135  1.00  0.00     0.121 A 
ATOM     39  C   UNL     1      32.694  -0.219  51.544  1.00  0.00     0.021 A 
ATOM     40  N   UNL     1      34.873   0.527  52.266  1.00  0.00    -0.264 NA
ATOM     41  C   UNL     1      34.086  -0.215  51.470  1.00  0.00     0.111 A 
ENDBRANCH  34  36
ENDBRANCH  28  30
ENDBRANCH   6  28
TORSDOF 7
ENDMDL
MODEL 6
REMARK VINA RESULT:   -11.496      3.779     11.764
REMARK INTER + INTRA:         -14.757
REMARK INTER:                 -13.584
REMARK INTRA:                  -1.173
REMARK CONF_INDEPENDENT:        2.088
REMARK UNBOUND:                -1.173
REMARK SMILES Cc1cn(-c2cc(NC(=O)c3ccc(C)c(Nc4nccc(-c5cccnc5)n4)c3)cc(C(F)(F)F)c2)cn1
REMARK SMILES IDX 11 1 12 2 13 3 14 4 15 5 16 6 30 7 9 8 10 9 8 10 7 12 6 13
REMARK SMILES IDX 31 14 5 15 32 16 37 17 4 18 3 19 38 20 2 21 39 22 1 23 33 24
REMARK SMILES IDX 34 25 35 26 36 27 17 28 18 30 19 31 29 32 20 33 22 34 21 35
REMARK SMILES IDX 23 36 24 37 28 38 25 39 27 40 26 41
REMARK H PARENT 8 11 17 29
ROOT
ATOM      1  C   UNL     1      25.918   3.816  51.924  1.00  0.00     0.042 A 
ATOM      2  C   UNL     1      25.279   4.251  50.753  1.00  0.00     0.014 A 
ATOM      3  C   UNL     1      24.152   5.073  50.803  1.00  0.00     0.006 A 
ATOM      4  C   UNL     1      23.570   5.422  52.011  1.00  0.00    -0.027 A 
ATOM      5  C   UNL     1      22.337   6.313  52.049  1.00  0.00     0.046 C 
ATOM      6  C   UNL     1      24.140   4.908  53.175  1.00  0.00     0.045 A 
ATOM      7  C   UNL     1      25.286   4.106  53.105  1.00  0.00     0.040 A 
ENDROOT
BRANCH   1   8
ATOM      8  C   UNL     1      27.033   2.849  51.967  1.00  0.00     0.255 C 
ATOM      9  O   UNL     1      27.747   2.838  50.995  1.00  0.00    -0.269 OA
ATOM     10  N   UNL     1      27.277   2.280  53.157  1.00  0.00    -0.322 N 
ATOM     11  H   UNL     1      26.632   2.510  53.926  1.00  0.00     0.170 HD
BRANCH  10  12
ATOM     12  C   UNL     1      28.320   1.410  53.447  1.00  0.00     0.044 A 
ATOM     13  C   UNL     1      29.627   1.653  52.957  1.00  0.00     0.052 A 
ATOM     14  C   UNL     1      28.076   0.201  54.134  1.00  0.00     0.039 A 
ATOM     15  C   UNL     1      30.685   0.788  53.252  1.00  0.00     0.049 A 
ATOM     16  C   UNL     1      29.160  -0.667  54.452  1.00  0.00     0.060 A 
ATOM     17  C   UNL     1      30.439  -0.374  53.975  1.00  0.00     0.039 A 
BRANCH  15  18
ATOM     18  N   UNL     1      31.991   1.042  52.807  1.00  0.00    -0.306 N 
ATOM     19  C   UNL     1      32.630   0.581  51.657  1.00  0.00     0.116 A 
ATOM     20  C   UNL     1      32.942   1.722  53.459  1.00  0.00     0.204 A 
ATOM     21  C   UNL     1      33.911   1.010  51.684  1.00  0.00     0.056 A 
ATOM     22  N   UNL     1      34.077   1.750  52.803  1.00  0.00    -0.242 NA
ATOM     23  C   UNL     1      34.989   0.783  50.653  1.00  0.00     0.068 C 
ENDBRANCH  15  18
BRANCH  16  24
ATOM     24  C   UNL     1      28.882  -1.911  55.233  1.00  0.00     0.416 C 
ATOM     25  F   UNL     1      28.047  -2.784  54.636  1.00  0.00    -0.166 F 
ATOM     26  F   UNL     1      29.983  -2.639  55.379  1.00  0.00    -0.166 F 
ATOM     27  F   UNL     1      28.276  -1.653  56.410  1.00  0.00    -0.166 F 
ENDBRANCH  16  24
ENDBRANCH  10  12
ENDBRANCH   1   8
BRANCH   6  28
ATOM     28  N   UNL     1      23.671   5.376  54.409  1.00  0.00    -0.324 N 
ATOM     29  H   UNL     1      22.707   5.175  54.709  1.00  0.00     0.170 HD
BRANCH  28  30
ATOM     30  C   UNL     1      24.523   6.118  55.230  1.00  0.00     0.227 A 
ATOM     31  N   UNL     1      25.816   6.372  55.075  1.00  0.00    -0.221 NA
ATOM     32  N   UNL     1      23.811   6.504  56.320  1.00  0.00    -0.213 NA
ATOM     33  C   UNL     1      26.414   7.085  56.049  1.00  0.00     0.117 A 
ATOM     34  C   UNL     1      24.456   7.182  57.276  1.00  0.00     0.077 A 
ATOM     35  C   UNL     1      25.767   7.481  57.156  1.00  0.00     0.049 A 
BRANCH  34  36
ATOM     36  C   UNL     1      23.625   7.611  58.431  1.00  0.00     0.019 A 
ATOM     37  C   UNL     1      22.258   7.302  58.509  1.00  0.00     0.013 A 
ATOM     38  C   UNL     1      24.192   8.360  59.481  1.00  0.00     0.121 A 
ATOM     39  C   UNL     1      21.525   7.752  59.600  1.00  0.00     0.021 A 
ATOM     40  N   UNL     1      23.489   8.803  60.532  1.00  0.00    -0.264 NA
ATOM     41  C   UNL     1      22.189   8.471  60.593  1.00  0.00     0.111 A 
ENDBRANCH  34  36
ENDBRANCH  28  30
ENDBRANCH   6  28
TORSDOF 7
ENDMDL
MODEL 7
REMARK VINA RESULT:   -11.439      4.099     11.162
REMARK INTER + INTRA:         -14.717
REMARK INTER:                 -13.528
REMARK INTRA:                  -1.190
REMARK CONF_INDEPENDENT:        2.088
REMARK UNBOUND:                -1.190
REMARK SMILES Cc1cn(-c2cc(NC(=O)c3ccc(C)c(Nc4nccc(-c5cccnc5)n4)c3)cc(C(F)(F)F)c2)cn1
REMARK SMILES IDX 11 1 12 2 13 3 14 4 15 5 16 6 30 7 9 8 10 9 8 10 7 12 6 13
REMARK SMILES IDX 31 14 5 15 32 16 37 17 4 18 3 19 38 20 2 21 39 22 1 23 33 24
REMARK SMILES IDX 34 25 35 26 36 27 17 28 18 30 19 31 29 32 20 33 22 34 21 35
REMARK SMILES IDX 23 36 24 37 28 38 25 39 27 40 26 41
REMARK H PARENT 8 11 17 29
ROOT
ATOM      1  C   UNL     1      25.852   3.878  52.007  1.00  0.00     0.042 A 
ATOM      2  C   UNL     1      25.267   4.358  50.826  1.00  0.00     0.014 A 
ATOM      3  C   UNL     1      24.133   5.172  50.855  1.00  0.00     0.006 A 
ATOM      4  C   UNL     1      23.493   5.470  52.048  1.00  0.00    -0.027 A 
ATOM      5  C   UNL     1      22.254   6.353  52.064  1.00  0.00     0.046 C 
ATOM      6  C   UNL     1      24.010   4.911  53.215  1.00  0.00     0.045 A 
ATOM      7  C   UNL     1      25.163   4.117  53.167  1.00  0.00     0.040 A 
ENDROOT
BRANCH   1   8
ATOM      8  C   UNL     1      26.969   2.914  52.063  1.00  0.00     0.255 C 
ATOM      9  O   UNL     1      27.691   2.900  51.096  1.00  0.00    -0.269 OA
ATOM     10  N   UNL     1      27.207   2.353  53.258  1.00  0.00    -0.322 N 
ATOM     11  H   UNL     1      26.555   2.585  54.021  1.00  0.00     0.170 HD
BRANCH  10  12
ATOM     12  C   UNL     1      28.250   1.487  53.560  1.00  0.00     0.044 A 
ATOM     13  C   UNL     1      29.570   1.759  53.123  1.00  0.00     0.052 A 
ATOM     14  C   UNL     1      27.998   0.257  54.205  1.00  0.00     0.039 A 
ATOM     15  C   UNL     1      30.628   0.899  53.430  1.00  0.00     0.049 A 
ATOM     16  C   UNL     1      29.081  -0.607  54.537  1.00  0.00     0.060 A 
ATOM     17  C   UNL     1      30.372  -0.286  54.112  1.00  0.00     0.039 A 
BRANCH  15  18
ATOM     18  N   UNL     1      31.946   1.181  53.038  1.00  0.00    -0.306 N 
ATOM     19  C   UNL     1      32.679   0.643  51.981  1.00  0.00     0.116 A 
ATOM     20  C   UNL     1      32.817   1.976  53.669  1.00  0.00     0.204 A 
ATOM     21  C   UNL     1      33.931   1.145  52.038  1.00  0.00     0.056 A 
ATOM     22  N   UNL     1      33.988   2.002  53.082  1.00  0.00    -0.242 NA
ATOM     23  C   UNL     1      35.083   0.876  51.100  1.00  0.00     0.068 C 
ENDBRANCH  15  18
BRANCH  16  24
ATOM     24  C   UNL     1      28.793  -1.875  55.274  1.00  0.00     0.416 C 
ATOM     25  F   UNL     1      27.885  -2.680  54.688  1.00  0.00    -0.166 F 
ATOM     26  F   UNL     1      29.866  -2.656  55.317  1.00  0.00    -0.166 F 
ATOM     27  F   UNL     1      28.269  -1.650  56.497  1.00  0.00    -0.166 F 
ENDBRANCH  16  24
ENDBRANCH  10  12
ENDBRANCH   1   8
BRANCH   6  28
ATOM     28  N   UNL     1      23.481   5.326  54.444  1.00  0.00    -0.324 N 
ATOM     29  H   UNL     1      22.768   4.757  54.922  1.00  0.00     0.170 HD
BRANCH  28  30
ATOM     30  C   UNL     1      23.929   6.518  55.017  1.00  0.00     0.227 A 
ATOM     31  N   UNL     1      23.921   7.742  54.504  1.00  0.00    -0.221 NA
ATOM     32  N   UNL     1      24.479   6.216  56.221  1.00  0.00    -0.213 NA
ATOM     33  C   UNL     1      24.460   8.718  55.259  1.00  0.00     0.117 A 
ATOM     34  C   UNL     1      25.031   7.214  56.921  1.00  0.00     0.077 A 
ATOM     35  C   UNL     1      25.032   8.479  56.450  1.00  0.00     0.049 A 
BRANCH  34  36
ATOM     36  C   UNL     1      25.588   6.837  58.246  1.00  0.00     0.019 A 
ATOM     37  C   UNL     1      24.758   6.437  59.306  1.00  0.00     0.013 A 
ATOM     38  C   UNL     1      26.976   6.888  58.480  1.00  0.00     0.121 A 
ATOM     39  C   UNL     1      25.332   6.121  60.531  1.00  0.00     0.021 A 
ATOM     40  N   UNL     1      27.535   6.593  59.661  1.00  0.00    -0.264 NA
ATOM     41  C   UNL     1      26.720   6.188  60.649  1.00  0.00     0.111 A 
ENDBRANCH  34  36
ENDBRANCH  28  30
ENDBRANCH   6  28
TORSDOF 7
ENDMDL
MODEL 8
REMARK VINA RESULT:   -11.082      4.494      7.933
REMARK INTER + INTRA:         -14.168
REMARK INTER:                 -13.170
REMARK INTRA:                  -0.997
REMARK CONF_INDEPENDENT:        2.088
REMARK UNBOUND:                -0.997
REMARK SMILES Cc1cn(-c2cc(NC(=O)c3ccc(C)c(Nc4nccc(-c5cccnc5)n4)c3)cc(C(F)(F)F)c2)cn1
REMARK SMILES IDX 11 1 12 2 13 3 14 4 15 5 16 6 30 7 9 8 10 9 8 10 7 12 6 13
REMARK SMILES IDX 31 14 5 15 32 16 37 17 4 18 3 19 38 20 2 21 39 22 1 23 33 24
REMARK SMILES IDX 34 25 35 26 36 27 17 28 18 30 19 31 29 32 20 33 22 34 21 35
REMARK SMILES IDX 23 36 24 37 28 38 25 39 27 40 26 41
REMARK H PARENT 8 11 17 29
ROOT
ATOM      1  C   UNL     1      33.880  -0.561  50.773  1.00  0.00     0.042 A 
ATOM      2  C   UNL     1      33.879  -1.794  50.104  1.00  0.00     0.014 A 
ATOM      3  C   UNL     1      34.891  -2.133  49.204  1.00  0.00     0.006 A 
ATOM      4  C   UNL     1      35.891  -1.233  48.874  1.00  0.00    -0.027 A 
ATOM      5  C   UNL     1      36.984  -1.614  47.886  1.00  0.00     0.046 C 
ATOM      6  C   UNL     1      35.839   0.033  49.457  1.00  0.00     0.045 A 
ATOM      7  C   UNL     1      34.829   0.345  50.376  1.00  0.00     0.040 A 
ENDROOT
BRANCH   1   8
ATOM      8  C   UNL     1      32.789  -0.071  51.638  1.00  0.00     0.255 C 
ATOM      9  O   UNL     1      32.938   1.043  52.079  1.00  0.00    -0.269 OA
ATOM     10  N   UNL     1      31.660  -0.795  51.635  1.00  0.00    -0.322 N 
ATOM     11  H   UNL     1      31.665  -1.666  51.085  1.00  0.00     0.170 HD
BRANCH  10  12
ATOM     12  C   UNL     1      30.485  -0.478  52.304  1.00  0.00     0.044 A 
ATOM     13  C   UNL     1      29.707   0.642  51.918  1.00  0.00     0.052 A 
ATOM     14  C   UNL     1      30.102  -1.192  53.461  1.00  0.00     0.039 A 
ATOM     15  C   UNL     1      28.519   0.963  52.580  1.00  0.00     0.049 A 
ATOM     16  C   UNL     1      28.880  -0.877  54.120  1.00  0.00     0.060 A 
ATOM     17  C   UNL     1      28.128   0.217  53.687  1.00  0.00     0.039 A 
BRANCH  15  18
ATOM     18  N   UNL     1      27.720   2.045  52.178  1.00  0.00    -0.306 N 
ATOM     19  C   UNL     1      26.763   2.746  52.910  1.00  0.00     0.116 A 
ATOM     20  C   UNL     1      27.649   2.577  50.953  1.00  0.00     0.204 A 
ATOM     21  C   UNL     1      26.184   3.650  52.091  1.00  0.00     0.056 A 
ATOM     22  N   UNL     1      26.775   3.551  50.879  1.00  0.00    -0.242 NA
ATOM     23  C   UNL     1      25.107   4.653  52.427  1.00  0.00     0.068 C 
ENDBRANCH  15  18
BRANCH  16  24
ATOM     24  C   UNL     1      28.469  -1.689  55.305  1.00  0.00     0.416 C 
ATOM     25  F   UNL     1      27.540  -2.633  55.055  1.00  0.00    -0.166 F 
ATOM     26  F   UNL     1      29.483  -2.414  55.761  1.00  0.00    -0.166 F 
ATOM     27  F   UNL     1      27.900  -0.936  56.269  1.00  0.00    -0.166 F 
ENDBRANCH  16  24
ENDBRANCH  10  12
ENDBRANCH   1   8
BRANCH   6  28
ATOM     28  N   UNL     1      36.922   0.900  49.266  1.00  0.00    -0.324 N 
ATOM     29  H   UNL     1      36.762   1.874  48.974  1.00  0.00     0.170 HD
BRANCH  28  30
ATOM     30  C   UNL     1      38.221   0.432  49.475  1.00  0.00     0.227 A 
ATOM     31  N   UNL     1      38.661  -0.424  50.389  1.00  0.00    -0.221 NA
ATOM     32  N   UNL     1      39.037   1.078  48.602  1.00  0.00    -0.213 NA
ATOM     33  C   UNL     1      39.984  -0.672  50.399  1.00  0.00     0.117 A 
ATOM     34  C   UNL     1      40.348   0.823  48.672  1.00  0.00     0.077 A 
ATOM     35  C   UNL     1      40.842  -0.054  49.572  1.00  0.00     0.049 A 
BRANCH  34  36
ATOM     36  C   UNL     1      41.193   1.527  47.672  1.00  0.00     0.019 A 
ATOM     37  C   UNL     1      42.544   1.816  47.924  1.00  0.00     0.013 A 
ATOM     38  C   UNL     1      40.650   1.941  46.441  1.00  0.00     0.121 A 
ATOM     39  C   UNL     1      43.279   2.499  46.964  1.00  0.00     0.021 A 
ATOM     40  N   UNL     1      41.351   2.607  45.514  1.00  0.00    -0.264 NA
ATOM     41  C   UNL     1      42.647   2.848  45.770  1.00  0.00     0.111 A 
ENDBRANCH  34  36
ENDBRANCH  28  30
ENDBRANCH   6  28
TORSDOF 7
ENDMDL
MODEL 9
REMARK VINA RESULT:   -10.923      3.886     11.712
REMARK INTER + INTRA:         -14.065
REMARK INTER:                 -13.011
REMARK INTRA:                  -1.054
REMARK CONF_INDEPENDENT:        2.088
REMARK UNBOUND:                -1.054
REMARK SMILES Cc1cn(-c2cc(NC(=O)c3ccc(C)c(Nc4nccc(-c5cccnc5)n4)c3)cc(C(F)(F)F)c2)cn1
REMARK SMILES IDX 11 1 12 2 13 3 14 4 15 5 16 6 30 7 9 8 10 9 8 10 7 12 6 13
REMARK SMILES IDX 31 14 5 15 32 16 37 17 4 18 3 19 38 20 2 21 39 22 1 23 33 24
REMARK SMILES IDX 34 25 35 26 36 27 17 28 18 30 19 31 29 32 20 33 22 34 21 35
REMARK SMILES IDX 23 36 24 37 28 38 25 39 27 40 26 41
REMARK H PARENT 8 11 17 29
ROOT
ATOM      1  C   UNL     1      25.739   3.575  51.880  1.00  0.00     0.042 A 
ATOM      2  C   UNL     1      24.850   3.344  50.820  1.00  0.00     0.014 A 
ATOM      3  C   UNL     1      23.512   3.737  50.894  1.00  0.00     0.006 A 
ATOM      4  C   UNL     1      22.991   4.295  52.050  1.00  0.00    -0.027 A 
ATOM      5  C   UNL     1      21.529   4.712  52.120  1.00  0.00     0.046 C 
ATOM      6  C   UNL     1      23.845   4.433  53.143  1.00  0.00     0.045 A 
ATOM      7  C   UNL     1      25.190   4.056  53.040  1.00  0.00     0.040 A 
ENDROOT
BRANCH   1   8
ATOM      8  C   UNL     1      27.130   3.083  51.937  1.00  0.00     0.255 C 
ATOM      9  O   UNL     1      27.725   3.090  50.887  1.00  0.00    -0.269 OA
ATOM     10  N   UNL     1      27.652   2.925  53.162  1.00  0.00    -0.322 N 
ATOM     11  H   UNL     1      27.026   3.094  53.962  1.00  0.00     0.170 HD
BRANCH  10  12
ATOM     12  C   UNL     1      28.959   2.554  53.451  1.00  0.00     0.044 A 
ATOM     13  C   UNL     1      29.621   1.565  52.682  1.00  0.00     0.052 A 
ATOM     14  C   UNL     1      29.616   3.066  54.591  1.00  0.00     0.039 A 
ATOM     15  C   UNL     1      30.939   1.192  52.958  1.00  0.00     0.049 A 
ATOM     16  C   UNL     1      30.966   2.702  54.857  1.00  0.00     0.060 A 
ATOM     17  C   UNL     1      31.592   1.745  54.055  1.00  0.00     0.039 A 
BRANCH  15  18
ATOM     18  N   UNL     1      31.617   0.244  52.177  1.00  0.00    -0.306 N 
ATOM     19  C   UNL     1      32.944   0.248  51.752  1.00  0.00     0.116 A 
ATOM     20  C   UNL     1      31.089  -0.837  51.590  1.00  0.00     0.204 A 
ATOM     21  C   UNL     1      33.134  -0.822  50.949  1.00  0.00     0.056 A 
ATOM     22  N   UNL     1      31.969  -1.505  50.887  1.00  0.00    -0.242 NA
ATOM     23  C   UNL     1      34.407  -1.255  50.263  1.00  0.00     0.068 C 
ENDBRANCH  15  18
BRANCH  16  24
ATOM     24  C   UNL     1      31.657   3.306  56.037  1.00  0.00     0.416 C 
ATOM     25  F   UNL     1      31.055   4.396  56.553  1.00  0.00    -0.166 F 
ATOM     26  F   UNL     1      31.651   2.473  57.071  1.00  0.00    -0.166 F 
ATOM     27  F   UNL     1      32.896   3.745  55.736  1.00  0.00    -0.166 F 
ENDBRANCH  16  24
ENDBRANCH  10  12
ENDBRANCH   1   8
BRANCH   6  28
ATOM     28  N   UNL     1      23.387   5.140  54.262  1.00  0.00    -0.324 N 
ATOM     29  H   UNL     1      22.396   5.091  54.538  1.00  0.00     0.170 HD
BRANCH  28  30
ATOM     30  C   UNL     1      24.285   5.914  55.000  1.00  0.00     0.227 A 
ATOM     31  N   UNL     1      25.577   6.124  54.783  1.00  0.00    -0.221 NA
ATOM     32  N   UNL     1      23.622   6.391  56.086  1.00  0.00    -0.213 NA
ATOM     33  C   UNL     1      26.227   6.885  55.684  1.00  0.00     0.117 A 
ATOM     34  C   UNL     1      24.318   7.115  56.970  1.00  0.00     0.077 A 
ATOM     35  C   UNL     1      25.630   7.372  56.784  1.00  0.00     0.049 A 
BRANCH  34  36
ATOM     36  C   UNL     1      23.540   7.643  58.121  1.00  0.00     0.019 A 
ATOM     37  C   UNL     1      23.922   8.816  58.792  1.00  0.00     0.013 A 
ATOM     38  C   UNL     1      22.396   6.963  58.583  1.00  0.00     0.121 A 
ATOM     39  C   UNL     1      23.171   9.248  59.878  1.00  0.00     0.021 A 
ATOM     40  N   UNL     1      21.673   7.370  59.634  1.00  0.00    -0.264 NA
ATOM     41  C   UNL     1      22.046   8.509  60.241  1.00  0.00     0.111 A 
ENDBRANCH  34  36
ENDBRANCH  28  30
ENDBRANCH   6  28
TORSDOF 7
ENDMDL
MODEL 10
REMARK VINA RESULT:   -10.911      4.537      7.468
REMARK INTER + INTRA:         -13.790
REMARK INTER:                 -12.999
REMARK INTRA:                  -0.791
REMARK CONF_INDEPENDENT:        2.088
REMARK UNBOUND:                -0.791
REMARK SMILES Cc1cn(-c2cc(NC(=O)c3ccc(C)c(Nc4nccc(-c5cccnc5)n4)c3)cc(C(F)(F)F)c2)cn1
REMARK SMILES IDX 11 1 12 2 13 3 14 4 15 5 16 6 30 7 9 8 10 9 8 10 7 12 6 13
REMARK SMILES IDX 31 14 5 15 32 16 37 17 4 18 3 19 38 20 2 21 39 22 1 23 33 24
REMARK SMILES IDX 34 25 35 26 36 27 17 28 18 30 19 31 29 32 20 33 22 34 21 35
REMARK SMILES IDX 23 36 24 37 28 38 25 39 27 40 26 41
REMARK H PARENT 8 11 17 29
ROOT
ATOM      1  C   UNL     1      23.040   5.888  52.777  1.00  0.00     0.042 A 
ATOM      2  C   UNL     1      22.724   5.611  51.438  1.00  0.00     0.014 A 
ATOM      3  C   UNL     1      23.306   4.539  50.761  1.00  0.00     0.006 A 
ATOM      4  C   UNL     1      24.281   3.755  51.358  1.00  0.00    -0.027 A 
ATOM      5  C   UNL     1      24.912   2.593  50.605  1.00  0.00     0.046 C 
ATOM      6  C   UNL     1      24.674   4.089  52.653  1.00  0.00     0.045 A 
ATOM      7  C   UNL     1      24.060   5.154  53.325  1.00  0.00     0.040 A 
ENDROOT
BRANCH   1   8
ATOM      8  C   UNL     1      22.572   7.070  53.527  1.00  0.00     0.255 C 
ATOM      9  O   UNL     1      23.419   7.890  53.785  1.00  0.00    -0.269 OA
ATOM     10  N   UNL     1      21.242   7.225  53.616  1.00  0.00    -0.322 N 
ATOM     11  H   UNL     1      20.656   6.479  53.216  1.00  0.00     0.170 HD
BRANCH  10  12
ATOM     12  C   UNL     1      20.584   8.301  54.199  1.00  0.00     0.044 A 
ATOM     13  C   UNL     1      19.546   8.977  53.512  1.00  0.00     0.052 A 
ATOM     14  C   UNL     1      21.015   8.820  55.440  1.00  0.00     0.039 A 
ATOM     15  C   UNL     1      18.871  10.054  54.095  1.00  0.00     0.049 A 
ATOM     16  C   UNL     1      20.312   9.902  56.041  1.00  0.00     0.060 A 
ATOM     17  C   UNL     1      19.273  10.521  55.341  1.00  0.00     0.039 A 
BRANCH  15  18
ATOM     18  N   UNL     1      17.813  10.703  53.440  1.00  0.00    -0.306 N 
ATOM     19  C   UNL     1      16.594  11.133  53.959  1.00  0.00     0.116 A 
ATOM     20  C   UNL     1      17.723  10.967  52.131  1.00  0.00     0.204 A 
ATOM     21  C   UNL     1      15.853  11.628  52.943  1.00  0.00     0.056 A 
ATOM     22  N   UNL     1      16.590  11.545  51.813  1.00  0.00    -0.242 NA
ATOM     23  C   UNL     1      14.470  12.229  53.009  1.00  0.00     0.068 C 
ENDBRANCH  15  18
BRANCH  16  24
ATOM     24  C   UNL     1      20.752  10.392  57.382  1.00  0.00     0.416 C 
ATOM     25  F   UNL     1      19.753  10.706  58.231  1.00  0.00    -0.166 F 
ATOM     26  F   UNL     1      21.392   9.440  58.052  1.00  0.00    -0.166 F 
ATOM     27  F   UNL     1      21.465  11.534  57.302  1.00  0.00    -0.166 F 
ENDBRANCH  16  24
ENDBRANCH  10  12
ENDBRANCH   1   8
BRANCH   6  28
ATOM     28  N   UNL     1      25.534   3.218  53.334  1.00  0.00    -0.324 N 
ATOM     29  H   UNL     1      25.273   2.847  54.259  1.00  0.00     0.170 HD
BRANCH  28  30
ATOM     30  C   UNL     1      26.750   2.857  52.749  1.00  0.00     0.227 A 
ATOM     31  N   UNL     1      27.389   3.430  51.737  1.00  0.00    -0.221 NA
ATOM     32  N   UNL     1      27.175   1.718  53.354  1.00  0.00    -0.213 NA
ATOM     33  C   UNL     1      28.535   2.847  51.338  1.00  0.00     0.117 A 
ATOM     34  C   UNL     1      28.303   1.158  52.901  1.00  0.00     0.077 A 
ATOM     35  C   UNL     1      28.999   1.712  51.885  1.00  0.00     0.049 A 
BRANCH  34  36
ATOM     36  C   UNL     1      28.744  -0.067  53.618  1.00  0.00     0.019 A 
ATOM     37  C   UNL     1      28.059  -0.546  54.746  1.00  0.00     0.013 A 
ATOM     38  C   UNL     1      29.882  -0.777  53.188  1.00  0.00     0.121 A 
ATOM     39  C   UNL     1      28.532  -1.682  55.391  1.00  0.00     0.021 A 
ATOM     40  N   UNL     1      30.348  -1.867  53.810  1.00  0.00    -0.264 NA
ATOM     41  C   UNL     1      29.658  -2.318  54.870  1.00  0.00     0.111 A 
ENDBRANCH  34  36
ENDBRANCH  28  30
ENDBRANCH   6  28
TORSDOF 7
ENDMDL
MODEL 11
REMARK VINA RESULT:   -10.901      8.436     15.263
REMARK INTER + INTRA:         -14.294
REMARK INTER:                 -12.989
REMARK INTRA:                  -1.306
REMARK CONF_INDEPENDENT:        2.088
REMARK UNBOUND:                -1.306
REMARK SMILES Cc1cn(-c2cc(NC(=O)c3ccc(C)c(Nc4nccc(-c5cccnc5)n4)c3)cc(C(F)(F)F)c2)cn1
REMARK SMILES IDX 11 1 12 2 13 3 14 4 15 5 16 6 30 7 9 8 10 9 8 10 7 12 6 13
REMARK SMILES IDX 31 14 5 15 32 16 37 17 4 18 3 19 38 20 2 21 39 22 1 23 33 24
REMARK SMILES IDX 34 25 35 26 36 27 17 28 18 30 19 31 29 32 20 33 22 34 21 35
REMARK SMILES IDX 23 36 24 37 28 38 25 39 27 40 26 41
REMARK H PARENT 8 11 17 29
ROOT
ATOM      1  C   UNL     1      35.999  -1.640  49.246  1.00  0.00     0.042 A 
ATOM      2  C   UNL     1      35.226  -2.806  49.140  1.00  0.00     0.014 A 
ATOM      3  C   UNL     1      33.854  -2.794  49.397  1.00  0.00     0.006 A 
ATOM      4  C   UNL     1      33.217  -1.649  49.847  1.00  0.00    -0.027 A 
ATOM      5  C   UNL     1      31.722  -1.653  50.131  1.00  0.00     0.046 C 
ATOM      6  C   UNL     1      34.000  -0.514  50.054  1.00  0.00     0.045 A 
ATOM      7  C   UNL     1      35.370  -0.539  49.766  1.00  0.00     0.040 A 
ENDROOT
BRANCH   1   8
ATOM      8  C   UNL     1      37.469  -1.588  49.117  1.00  0.00     0.255 C 
ATOM      9  O   UNL     1      38.055  -1.109  50.057  1.00  0.00    -0.269 OA
ATOM     10  N   UNL     1      38.000  -2.293  48.107  1.00  0.00    -0.322 N 
ATOM     11  H   UNL     1      37.342  -2.757  47.465  1.00  0.00     0.170 HD
BRANCH  10  12
ATOM     12  C   UNL     1      39.355  -2.453  47.847  1.00  0.00     0.044 A 
ATOM     13  C   UNL     1      39.915  -2.028  46.617  1.00  0.00     0.052 A 
ATOM     14  C   UNL     1      40.181  -3.153  48.753  1.00  0.00     0.039 A 
ATOM     15  C   UNL     1      41.279  -2.176  46.351  1.00  0.00     0.049 A 
ATOM     16  C   UNL     1      41.575  -3.284  48.490  1.00  0.00     0.060 A 
ATOM     17  C   UNL     1      42.092  -2.822  47.277  1.00  0.00     0.039 A 
BRANCH  15  18
ATOM     18  N   UNL     1      41.851  -1.720  45.154  1.00  0.00    -0.306 N 
ATOM     19  C   UNL     1      42.150  -0.415  44.767  1.00  0.00     0.116 A 
ATOM     20  C   UNL     1      42.150  -2.457  44.077  1.00  0.00     0.204 A 
ATOM     21  C   UNL     1      42.609  -0.446  43.497  1.00  0.00     0.056 A 
ATOM     22  N   UNL     1      42.632  -1.736  43.095  1.00  0.00    -0.242 NA
ATOM     23  C   UNL     1      43.078   0.713  42.651  1.00  0.00     0.068 C 
ENDBRANCH  15  18
BRANCH  16  24
ATOM     24  C   UNL     1      42.437  -3.976  49.495  1.00  0.00     0.416 C 
ATOM     25  F   UNL     1      42.485  -3.387  50.707  1.00  0.00    -0.166 F 
ATOM     26  F   UNL     1      41.953  -5.177  49.792  1.00  0.00    -0.166 F 
ATOM     27  F   UNL     1      43.731  -4.021  49.117  1.00  0.00    -0.166 F 
ENDBRANCH  16  24
ENDBRANCH  10  12
ENDBRANCH   1   8
BRANCH   6  28
ATOM     28  N   UNL     1      33.356   0.695  50.351  1.00  0.00    -0.324 N 
ATOM     29  H   UNL     1      33.014   1.301  49.592  1.00  0.00     0.170 HD
BRANCH  28  30
ATOM     30  C   UNL     1      33.181   1.070  51.684  1.00  0.00     0.227 A 
ATOM     31  N   UNL     1      33.881   1.939  52.403  1.00  0.00    -0.221 NA
ATOM     32  N   UNL     1      32.176   0.315  52.197  1.00  0.00    -0.213 NA
ATOM     33  C   UNL     1      33.525   2.083  53.694  1.00  0.00     0.117 A 
ATOM     34  C   UNL     1      31.879   0.470  53.492  1.00  0.00     0.077 A 
ATOM     35  C   UNL     1      32.551   1.355  54.261  1.00  0.00     0.049 A 
BRANCH  34  36
ATOM     36  C   UNL     1      30.749  -0.353  53.996  1.00  0.00     0.019 A 
ATOM     37  C   UNL     1      29.663   0.224  54.674  1.00  0.00     0.013 A 
ATOM     38  C   UNL     1      30.746  -1.750  53.816  1.00  0.00     0.121 A 
ATOM     39  C   UNL     1      28.647  -0.598  55.145  1.00  0.00     0.021 A 
ATOM     40  N   UNL     1      29.773  -2.548  54.275  1.00  0.00    -0.264 NA
ATOM     41  C   UNL     1      28.735  -1.967  54.897  1.00  0.00     0.111 A 
ENDBRANCH  34  36
ENDBRANCH  28  30
ENDBRANCH   6  28
TORSDOF 7
ENDMDL
MODEL 12
REMARK VINA RESULT:   -10.769      4.557     13.448
REMARK INTER + INTRA:         -14.198
REMARK INTER:                 -12.858
REMARK INTRA:                  -1.340
REMARK CONF_INDEPENDENT:        2.088
REMARK UNBOUND:                -1.340
REMARK SMILES Cc1cn(-c2cc(NC(=O)c3ccc(C)c(Nc4nccc(-c5cccnc5)n4)c3)cc(C(F)(F)F)c2)cn1
REMARK SMILES IDX 11 1 12 2 13 3 14 4 15 5 16 6 30 7 9 8 10 9 8 10 7 12 6 13
REMARK SMILES IDX 31 14 5 15 32 16 37 17 4 18 3 19 38 20 2 21 39 22 1 23 33 24
REMARK SMILES IDX 34 25 35 26 36 27 17 28 18 30 19 31 29 32 20 33 22 34 21 35
REMARK SMILES IDX 23 36 24 37 28 38 25 39 27 40 26 41
REMARK H PARENT 8 11 17 29
ROOT
ATOM      1  C   UNL     1      21.175   7.103  54.225  1.00  0.00     0.042 A 
ATOM      2  C   UNL     1      20.981   7.244  55.608  1.00  0.00     0.014 A 
ATOM      3  C   UNL     1      20.274   8.325  56.136  1.00  0.00     0.006 A 
ATOM      4  C   UNL     1      19.807   9.345  55.322  1.00  0.00    -0.027 A 
ATOM      5  C   UNL     1      19.043  10.522  55.913  1.00  0.00     0.046 C 
ATOM      6  C   UNL     1      20.086   9.262  53.959  1.00  0.00     0.045 A 
ATOM      7  C   UNL     1      20.776   8.157  53.445  1.00  0.00     0.040 A 
ENDROOT
BRANCH   1   8
ATOM      8  C   UNL     1      22.013   6.065  53.593  1.00  0.00     0.255 C 
ATOM      9  O   UNL     1      21.864   4.947  54.020  1.00  0.00    -0.269 OA
ATOM     10  N   UNL     1      22.648   6.423  52.467  1.00  0.00    -0.322 N 
ATOM     11  H   UNL     1      22.555   7.405  52.170  1.00  0.00     0.170 HD
BRANCH  10  12
ATOM     12  C   UNL     1      23.419   5.591  51.665  1.00  0.00     0.044 A 
ATOM     13  C   UNL     1      24.525   4.886  52.200  1.00  0.00     0.052 A 
ATOM     14  C   UNL     1      23.192   5.524  50.273  1.00  0.00     0.039 A 
ATOM     15  C   UNL     1      25.300   4.038  51.404  1.00  0.00     0.049 A 
ATOM     16  C   UNL     1      23.969   4.643  49.467  1.00  0.00     0.060 A 
ATOM     17  C   UNL     1      25.031   3.942  50.042  1.00  0.00     0.039 A 
BRANCH  15  18
ATOM     18  N   UNL     1      26.371   3.303  51.934  1.00  0.00    -0.306 N 
ATOM     19  C   UNL     1      26.648   2.994  53.264  1.00  0.00     0.116 A 
ATOM     20  C   UNL     1      27.419   2.814  51.260  1.00  0.00     0.204 A 
ATOM     21  C   UNL     1      27.830   2.341  53.309  1.00  0.00     0.056 A 
ATOM     22  N   UNL     1      28.280   2.210  52.041  1.00  0.00    -0.242 NA
ATOM     23  C   UNL     1      28.540   1.787  54.521  1.00  0.00     0.068 C 
ENDBRANCH  15  18
BRANCH  16  24
ATOM     24  C   UNL     1      23.668   4.547  48.007  1.00  0.00     0.416 C 
ATOM     25  F   UNL     1      22.402   4.859  47.665  1.00  0.00    -0.166 F 
ATOM     26  F   UNL     1      24.368   5.438  47.315  1.00  0.00    -0.166 F 
ATOM     27  F   UNL     1      23.819   3.292  47.534  1.00  0.00    -0.166 F 
ENDBRANCH  16  24
ENDBRANCH  10  12
ENDBRANCH   1   8
BRANCH   6  28
ATOM     28  N   UNL     1      19.488  10.192  53.098  1.00  0.00    -0.324 N 
ATOM     29  H   UNL     1      20.066  10.755  52.459  1.00  0.00     0.170 HD
BRANCH  28  30
ATOM     30  C   UNL     1      18.100  10.349  53.115  1.00  0.00     0.227 A 
ATOM     31  N   UNL     1      17.388  11.464  53.015  1.00  0.00    -0.221 NA
ATOM     32  N   UNL     1      17.550   9.128  53.337  1.00  0.00    -0.213 NA
ATOM     33  C   UNL     1      16.050  11.338  53.106  1.00  0.00     0.117 A 
ATOM     34  C   UNL     1      16.219   9.057  53.452  1.00  0.00     0.077 A 
ATOM     35  C   UNL     1      15.449  10.161  53.341  1.00  0.00     0.049 A 
BRANCH  34  36
ATOM     36  C   UNL     1      15.664   7.694  53.660  1.00  0.00     0.019 A 
ATOM     37  C   UNL     1      15.903   6.655  52.746  1.00  0.00     0.013 A 
ATOM     38  C   UNL     1      14.862   7.412  54.783  1.00  0.00     0.121 A 
ATOM     39  C   UNL     1      15.338   5.408  52.979  1.00  0.00     0.021 A 
ATOM     40  N   UNL     1      14.308   6.214  55.009  1.00  0.00    -0.264 NA
ATOM     41  C   UNL     1      14.574   5.232  54.133  1.00  0.00     0.111 A 
ENDBRANCH  34  36
ENDBRANCH  28  30
ENDBRANCH   6  28
TORSDOF 7
ENDMDL
MODEL 13
REMARK VINA RESULT:   -10.753      3.641     12.147
REMARK INTER + INTRA:         -14.142
REMARK INTER:                 -12.841
REMARK INTRA:                  -1.301
REMARK CONF_INDEPENDENT:        2.088
REMARK UNBOUND:                -1.301
REMARK SMILES Cc1cn(-c2cc(NC(=O)c3ccc(C)c(Nc4nccc(-c5cccnc5)n4)c3)cc(C(F)(F)F)c2)cn1
REMARK SMILES IDX 11 1 12 2 13 3 14 4 15 5 16 6 30 7 9 8 10 9 8 10 7 12 6 13
REMARK SMILES IDX 31 14 5 15 32 16 37 17 4 18 3 19 38 20 2 21 39 22 1 23 33 24
REMARK SMILES IDX 34 25 35 26 36 27 17 28 18 30 19 31 29 32 20 33 22 34 21 35
REMARK SMILES IDX 23 36 24 37 28 38 25 39 27 40 26 41
REMARK H PARENT 8 11 17 29
ROOT
ATOM      1  C   UNL     1      25.598   3.570  51.861  1.00  0.00     0.042 A 
ATOM      2  C   UNL     1      24.786   3.565  50.717  1.00  0.00     0.014 A 
ATOM      3  C   UNL     1      23.455   3.982  50.768  1.00  0.00     0.006 A 
ATOM      4  C   UNL     1      22.859   4.338  51.967  1.00  0.00    -0.027 A 
ATOM      5  C   UNL     1      21.404   4.783  52.009  1.00  0.00     0.046 C 
ATOM      6  C   UNL     1      23.631   4.246  53.124  1.00  0.00     0.045 A 
ATOM      7  C   UNL     1      24.972   3.850  53.048  1.00  0.00     0.040 A 
ENDROOT
BRANCH   1   8
ATOM      8  C   UNL     1      26.970   3.030  51.924  1.00  0.00     0.255 C 
ATOM      9  O   UNL     1      27.515   2.874  50.859  1.00  0.00    -0.269 OA
ATOM     10  N   UNL     1      27.543   3.011  53.137  1.00  0.00    -0.322 N 
ATOM     11  H   UNL     1      26.963   3.310  53.933  1.00  0.00     0.170 HD
BRANCH  10  12
ATOM     12  C   UNL     1      28.848   2.625  53.417  1.00  0.00     0.044 A 
ATOM     13  C   UNL     1      29.494   1.630  52.642  1.00  0.00     0.052 A 
ATOM     14  C   UNL     1      29.517   3.128  54.554  1.00  0.00     0.039 A 
ATOM     15  C   UNL     1      30.810   1.242  52.909  1.00  0.00     0.049 A 
ATOM     16  C   UNL     1      30.866   2.748  54.811  1.00  0.00     0.060 A 
ATOM     17  C   UNL     1      31.475   1.786  54.004  1.00  0.00     0.039 A 
BRANCH  15  18
ATOM     18  N   UNL     1      31.473   0.289  52.122  1.00  0.00    -0.306 N 
ATOM     19  C   UNL     1      31.101  -0.238  50.886  1.00  0.00     0.116 A 
ATOM     20  C   UNL     1      32.577  -0.393  52.450  1.00  0.00     0.204 A 
ATOM     21  C   UNL     1      31.997  -1.190  50.547  1.00  0.00     0.056 A 
ATOM     22  N   UNL     1      32.931  -1.249  51.522  1.00  0.00    -0.242 NA
ATOM     23  C   UNL     1      32.031  -2.028  49.292  1.00  0.00     0.068 C 
ENDBRANCH  15  18
BRANCH  16  24
ATOM     24  C   UNL     1      31.570   3.343  55.988  1.00  0.00     0.416 C 
ATOM     25  F   UNL     1      30.932   4.376  56.571  1.00  0.00    -0.166 F 
ATOM     26  F   UNL     1      31.651   2.470  56.986  1.00  0.00    -0.166 F 
ATOM     27  F   UNL     1      32.771   3.861  55.658  1.00  0.00    -0.166 F 
ENDBRANCH  16  24
ENDBRANCH  10  12
ENDBRANCH   1   8
BRANCH   6  28
ATOM     28  N   UNL     1      23.104   4.754  54.319  1.00  0.00    -0.324 N 
ATOM     29  H   UNL     1      22.582   4.138  54.959  1.00  0.00     0.170 HD
BRANCH  28  30
ATOM     30  C   UNL     1      23.293   6.100  54.636  1.00  0.00     0.227 A 
ATOM     31  N   UNL     1      24.350   6.686  55.186  1.00  0.00    -0.221 NA
ATOM     32  N   UNL     1      22.139   6.756  54.353  1.00  0.00    -0.213 NA
ATOM     33  C   UNL     1      24.252   8.007  55.427  1.00  0.00     0.117 A 
ATOM     34  C   UNL     1      22.078   8.061  54.640  1.00  0.00     0.077 A 
ATOM     35  C   UNL     1      23.133   8.706  55.184  1.00  0.00     0.049 A 
BRANCH  34  36
ATOM     36  C   UNL     1      20.806   8.741  54.279  1.00  0.00     0.019 A 
ATOM     37  C   UNL     1      19.638   8.565  55.038  1.00  0.00     0.013 A 
ATOM     38  C   UNL     1      20.737   9.574  53.146  1.00  0.00     0.121 A 
ATOM     39  C   UNL     1      18.472   9.205  54.638  1.00  0.00     0.021 A 
ATOM     40  N   UNL     1      19.614  10.187  52.751  1.00  0.00    -0.264 NA
ATOM     41  C   UNL     1      18.518  10.022  53.510  1.00  0.00     0.111 A 
ENDBRANCH  34  36
ENDBRANCH  28  30
ENDBRANCH   6  28
TORSDOF 7
ENDMDL
MODEL 14
REMARK VINA RESULT:   -10.722      3.357      5.436
REMARK INTER + INTRA:         -13.892
REMARK INTER:                 -12.810
REMARK INTRA:                  -1.082
REMARK CONF_INDEPENDENT:        2.088
REMARK UNBOUND:                -1.082
REMARK SMILES Cc1cn(-c2cc(NC(=O)c3ccc(C)c(Nc4nccc(-c5cccnc5)n4)c3)cc(C(F)(F)F)c2)cn1
REMARK SMILES IDX 11 1 12 2 13 3 14 4 15 5 16 6 30 7 9 8 10 9 8 10 7 12 6 13
REMARK SMILES IDX 31 14 5 15 32 16 37 17 4 18 3 19 38 20 2 21 39 22 1 23 33 24
REMARK SMILES IDX 34 25 35 26 36 27 17 28 18 30 19 31 29 32 20 33 22 34 21 35
REMARK SMILES IDX 23 36 24 37 28 38 25 39 27 40 26 41
REMARK H PARENT 8 11 17 29
ROOT
ATOM      1  C   UNL     1      27.722   1.908  52.429  1.00  0.00     0.042 A 
ATOM      2  C   UNL     1      27.999   0.765  51.664  1.00  0.00     0.014 A 
ATOM      3  C   UNL     1      28.976  -0.152  52.055  1.00  0.00     0.006 A 
ATOM      4  C   UNL     1      29.767   0.072  53.170  1.00  0.00    -0.027 A 
ATOM      5  C   UNL     1      30.833  -0.934  53.580  1.00  0.00     0.046 C 
ATOM      6  C   UNL     1      29.567   1.256  53.876  1.00  0.00     0.045 A 
ATOM      7  C   UNL     1      28.565   2.152  53.482  1.00  0.00     0.040 A 
ENDROOT
BRANCH   1   8
ATOM      8  C   UNL     1      26.802   2.989  52.027  1.00  0.00     0.255 C 
ATOM      9  O   UNL     1      26.761   3.222  50.844  1.00  0.00    -0.269 OA
ATOM     10  N   UNL     1      25.942   3.414  52.966  1.00  0.00    -0.322 N 
ATOM     11  H   UNL     1      26.035   3.002  53.905  1.00  0.00     0.170 HD
BRANCH  10  12
ATOM     12  C   UNL     1      24.938   4.357  52.786  1.00  0.00     0.044 A 
ATOM     13  C   UNL     1      24.188   4.840  53.887  1.00  0.00     0.052 A 
ATOM     14  C   UNL     1      24.561   4.766  51.488  1.00  0.00     0.039 A 
ATOM     15  C   UNL     1      23.183   5.796  53.717  1.00  0.00     0.049 A 
ATOM     16  C   UNL     1      23.553   5.757  51.319  1.00  0.00     0.060 A 
ATOM     17  C   UNL     1      22.858   6.229  52.436  1.00  0.00     0.039 A 
BRANCH  15  18
ATOM     18  N   UNL     1      22.463   6.311  54.806  1.00  0.00    -0.306 N 
ATOM     19  C   UNL     1      22.892   6.533  56.113  1.00  0.00     0.116 A 
ATOM     20  C   UNL     1      21.161   6.616  54.833  1.00  0.00     0.204 A 
ATOM     21  C   UNL     1      21.835   6.958  56.838  1.00  0.00     0.056 A 
ATOM     22  N   UNL     1      20.768   7.035  56.012  1.00  0.00    -0.242 NA
ATOM     23  C   UNL     1      21.804   7.345  58.297  1.00  0.00     0.068 C 
ENDBRANCH  15  18
BRANCH  16  24
ATOM     24  C   UNL     1      23.216   6.216  49.938  1.00  0.00     0.416 C 
ATOM     25  F   UNL     1      23.460   7.519  49.695  1.00  0.00    -0.166 F 
ATOM     26  F   UNL     1      23.986   5.619  49.036  1.00  0.00    -0.166 F 
ATOM     27  F   UNL     1      21.902   6.086  49.660  1.00  0.00    -0.166 F 
ENDBRANCH  16  24
ENDBRANCH  10  12
ENDBRANCH   1   8
BRANCH   6  28
ATOM     28  N   UNL     1      30.238   1.428  55.094  1.00  0.00    -0.324 N 
ATOM     29  H   UNL     1      29.973   0.868  55.916  1.00  0.00     0.170 HD
BRANCH  28  30
ATOM     30  C   UNL     1      31.270   2.365  55.183  1.00  0.00     0.227 A 
ATOM     31  N   UNL     1      32.172   2.699  54.269  1.00  0.00    -0.221 NA
ATOM     32  N   UNL     1      31.265   2.863  56.446  1.00  0.00    -0.213 NA
ATOM     33  C   UNL     1      33.093   3.611  54.634  1.00  0.00     0.117 A 
ATOM     34  C   UNL     1      32.220   3.742  56.771  1.00  0.00     0.077 A 
ATOM     35  C   UNL     1      33.150   4.128  55.871  1.00  0.00     0.049 A 
BRANCH  34  36
ATOM     36  C   UNL     1      32.151   4.283  58.154  1.00  0.00     0.019 A 
ATOM     37  C   UNL     1      32.517   3.509  59.266  1.00  0.00     0.013 A 
ATOM     38  C   UNL     1      31.698   5.597  58.386  1.00  0.00     0.121 A 
ATOM     39  C   UNL     1      32.408   4.059  60.537  1.00  0.00     0.021 A 
ATOM     40  N   UNL     1      31.583   6.130  59.609  1.00  0.00    -0.264 NA
ATOM     41  C   UNL     1      31.964   5.376  60.653  1.00  0.00     0.111 A 
ENDBRANCH  34  36
ENDBRANCH  28  30
ENDBRANCH   6  28
TORSDOF 7
ENDMDL
MODEL 15
REMARK VINA RESULT:   -10.659      3.783     11.825
REMARK INTER + INTRA:         -14.032
REMARK INTER:                 -12.747
REMARK INTRA:                  -1.285
REMARK CONF_INDEPENDENT:        2.088
REMARK UNBOUND:                -1.285
REMARK SMILES Cc1cn(-c2cc(NC(=O)c3ccc(C)c(Nc4nccc(-c5cccnc5)n4)c3)cc(C(F)(F)F)c2)cn1
REMARK SMILES IDX 11 1 12 2 13 3 14 4 15 5 16 6 30 7 9 8 10 9 8 10 7 12 6 13
REMARK SMILES IDX 31 14 5 15 32 16 37 17 4 18 3 19 38 20 2 21 39 22 1 23 33 24
REMARK SMILES IDX 34 25 35 26 36 27 17 28 18 30 19 31 29 32 20 33 22 34 21 35
REMARK SMILES IDX 23 36 24 37 28 38 25 39 27 40 26 41
REMARK H PARENT 8 11 17 29
ROOT
ATOM      1  C   UNL     1      25.845   3.904  51.940  1.00  0.00     0.042 A 
ATOM      2  C   UNL     1      25.207   4.309  50.758  1.00  0.00     0.014 A 
ATOM      3  C   UNL     1      24.106   5.167  50.784  1.00  0.00     0.006 A 
ATOM      4  C   UNL     1      23.550   5.585  51.982  1.00  0.00    -0.027 A 
ATOM      5  C   UNL     1      22.344   6.515  51.995  1.00  0.00     0.046 C 
ATOM      6  C   UNL     1      24.116   5.102  53.161  1.00  0.00     0.045 A 
ATOM      7  C   UNL     1      25.235   4.262  53.113  1.00  0.00     0.040 A 
ENDROOT
BRANCH   1   8
ATOM      8  C   UNL     1      26.929   2.904  52.012  1.00  0.00     0.255 C 
ATOM      9  O   UNL     1      27.649   2.849  51.046  1.00  0.00    -0.269 OA
ATOM     10  N   UNL     1      27.149   2.356  53.217  1.00  0.00    -0.322 N 
ATOM     11  H   UNL     1      26.507   2.623  53.976  1.00  0.00     0.170 HD
BRANCH  10  12
ATOM     12  C   UNL     1      28.164   1.462  53.534  1.00  0.00     0.044 A 
ATOM     13  C   UNL     1      29.496   1.694  53.112  1.00  0.00     0.052 A 
ATOM     14  C   UNL     1      27.869   0.241  54.179  1.00  0.00     0.039 A 
ATOM     15  C   UNL     1      30.525   0.805  53.434  1.00  0.00     0.049 A 
ATOM     16  C   UNL     1      28.922  -0.653  54.526  1.00  0.00     0.060 A 
ATOM     17  C   UNL     1      30.227  -0.370  54.117  1.00  0.00     0.039 A 
BRANCH  15  18
ATOM     18  N   UNL     1      31.855   1.047  53.057  1.00  0.00    -0.306 N 
ATOM     19  C   UNL     1      32.569   0.523  51.981  1.00  0.00     0.116 A 
ATOM     20  C   UNL     1      32.756   1.779  53.723  1.00  0.00     0.204 A 
ATOM     21  C   UNL     1      33.841   0.970  52.062  1.00  0.00     0.056 A 
ATOM     22  N   UNL     1      33.930   1.780  53.140  1.00  0.00    -0.242 NA
ATOM     23  C   UNL     1      34.985   0.692  51.117  1.00  0.00     0.068 C 
ENDBRANCH  15  18
BRANCH  16  24
ATOM     24  C   UNL     1      28.588  -1.909  55.263  1.00  0.00     0.416 C 
ATOM     25  F   UNL     1      29.609  -2.779  55.396  1.00  0.00    -0.166 F 
ATOM     26  F   UNL     1      28.279  -1.653  56.528  1.00  0.00    -0.166 F 
ATOM     27  F   UNL     1      27.638  -2.634  54.637  1.00  0.00    -0.166 F 
ENDBRANCH  16  24
ENDBRANCH  10  12
ENDBRANCH   1   8
BRANCH   6  28
ATOM     28  N   UNL     1      23.676   5.636  54.379  1.00  0.00    -0.324 N 
ATOM     29  H   UNL     1      22.806   5.295  54.812  1.00  0.00     0.170 HD
BRANCH  28  30
ATOM     30  C   UNL     1      24.426   6.636  55.001  1.00  0.00     0.227 A 
ATOM     31  N   UNL     1      25.590   6.533  55.631  1.00  0.00    -0.221 NA
ATOM     32  N   UNL     1      23.713   7.790  54.932  1.00  0.00    -0.213 NA
ATOM     33  C   UNL     1      26.079   7.658  56.187  1.00  0.00     0.117 A 
ATOM     34  C   UNL     1      24.225   8.874  55.526  1.00  0.00     0.077 A 
ATOM     35  C   UNL     1      25.414   8.824  56.164  1.00  0.00     0.049 A 
BRANCH  34  36
ATOM     36  C   UNL     1      23.424  10.118  55.392  1.00  0.00     0.019 A 
ATOM     37  C   UNL     1      23.347  11.059  56.431  1.00  0.00     0.013 A 
ATOM     38  C   UNL     1      22.703  10.381  54.211  1.00  0.00     0.121 A 
ATOM     39  C   UNL     1      22.562  12.192  56.259  1.00  0.00     0.021 A 
ATOM     40  N   UNL     1      21.939  11.468  54.042  1.00  0.00    -0.264 NA
ATOM     41  C   UNL     1      21.903  12.363  55.042  1.00  0.00     0.111 A 
ENDBRANCH  34  36
ENDBRANCH  28  30
ENDBRANCH   6  28
TORSDOF 7
ENDMDL
MODEL 16
REMARK VINA RESULT:   -10.633      1.742      2.566
REMARK INTER + INTRA:         -14.018
REMARK INTER:                 -12.721
REMARK INTRA:                  -1.298
REMARK CONF_INDEPENDENT:        2.088
REMARK UNBOUND:                -1.298
REMARK SMILES Cc1cn(-c2cc(NC(=O)c3ccc(C)c(Nc4nccc(-c5cccnc5)n4)c3)cc(C(F)(F)F)c2)cn1
REMARK SMILES IDX 11 1 12 2 13 3 14 4 15 5 16 6 30 7 9 8 10 9 8 10 7 12 6 13
REMARK SMILES IDX 31 14 5 15 32 16 37 17 4 18 3 19 38 20 2 21 39 22 1 23 33 24
REMARK SMILES IDX 34 25 35 26 36 27 17 28 18 30 19 31 29 32 20 33 22 34 21 35
REMARK SMILES IDX 23 36 24 37 28 38 25 39 27 40 26 41
REMARK H PARENT 8 11 17 29
ROOT
ATOM      1  C   UNL     1      27.410   2.001  52.389  1.00  0.00     0.042 A 
ATOM      2  C   UNL     1      27.625   0.837  51.636  1.00  0.00     0.014 A 
ATOM      3  C   UNL     1      28.563  -0.120  52.028  1.00  0.00     0.006 A 
ATOM      4  C   UNL     1      29.376   0.081  53.131  1.00  0.00    -0.027 A 
ATOM      5  C   UNL     1      30.400  -0.967  53.542  1.00  0.00     0.046 C 
ATOM      6  C   UNL     1      29.239   1.283  53.824  1.00  0.00     0.045 A 
ATOM      7  C   UNL     1      28.275   2.219  53.429  1.00  0.00     0.040 A 
ENDROOT
BRANCH   1   8
ATOM      8  C   UNL     1      26.535   3.118  51.983  1.00  0.00     0.255 C 
ATOM      9  O   UNL     1      26.466   3.317  50.795  1.00  0.00    -0.269 OA
ATOM     10  N   UNL     1      25.733   3.618  52.935  1.00  0.00    -0.322 N 
ATOM     11  H   UNL     1      25.836   3.230  53.884  1.00  0.00     0.170 HD
BRANCH  10  12
ATOM     12  C   UNL     1      24.776   4.609  52.758  1.00  0.00     0.044 A 
ATOM     13  C   UNL     1      23.996   5.070  53.848  1.00  0.00     0.052 A 
ATOM     14  C   UNL     1      24.474   5.093  51.467  1.00  0.00     0.039 A 
ATOM     15  C   UNL     1      23.038   6.073  53.682  1.00  0.00     0.049 A 
ATOM     16  C   UNL     1      23.513   6.132  51.303  1.00  0.00     0.060 A 
ATOM     17  C   UNL     1      22.788   6.578  52.410  1.00  0.00     0.039 A 
BRANCH  15  18
ATOM     18  N   UNL     1      22.291   6.566  54.762  1.00  0.00    -0.306 N 
ATOM     19  C   UNL     1      21.068   7.235  54.749  1.00  0.00     0.116 A 
ATOM     20  C   UNL     1      22.654   6.574  56.050  1.00  0.00     0.204 A 
ATOM     21  C   UNL     1      20.771   7.597  56.016  1.00  0.00     0.056 A 
ATOM     22  N   UNL     1      21.759   7.145  56.820  1.00  0.00    -0.242 NA
ATOM     23  C   UNL     1      19.544   8.325  56.511  1.00  0.00     0.068 C 
ENDBRANCH  15  18
BRANCH  16  24
ATOM     24  C   UNL     1      23.257   6.668  49.932  1.00  0.00     0.416 C 
ATOM     25  F   UNL     1      22.396   5.945  49.189  1.00  0.00    -0.166 F 
ATOM     26  F   UNL     1      22.650   7.847  49.987  1.00  0.00    -0.166 F 
ATOM     27  F   UNL     1      24.374   6.698  49.176  1.00  0.00    -0.166 F 
ENDBRANCH  16  24
ENDBRANCH  10  12
ENDBRANCH   1   8
BRANCH   6  28
ATOM     28  N   UNL     1      29.932   1.439  55.031  1.00  0.00    -0.324 N 
ATOM     29  H   UNL     1      29.561   1.030  55.900  1.00  0.00     0.170 HD
BRANCH  28  30
ATOM     30  C   UNL     1      31.131   2.154  55.048  1.00  0.00     0.227 A 
ATOM     31  N   UNL     1      31.445   3.237  55.747  1.00  0.00    -0.221 NA
ATOM     32  N   UNL     1      31.959   1.593  54.129  1.00  0.00    -0.213 NA
ATOM     33  C   UNL     1      32.669   3.759  55.540  1.00  0.00     0.117 A 
ATOM     34  C   UNL     1      33.152   2.165  53.935  1.00  0.00     0.077 A 
ATOM     35  C   UNL     1      33.525   3.258  54.636  1.00  0.00     0.049 A 
BRANCH  34  36
ATOM     36  C   UNL     1      34.034   1.492  52.945  1.00  0.00     0.019 A 
ATOM     37  C   UNL     1      33.901   1.721  51.566  1.00  0.00     0.013 A 
ATOM     38  C   UNL     1      35.026   0.587  53.370  1.00  0.00     0.121 A 
ATOM     39  C   UNL     1      34.736   1.045  50.686  1.00  0.00     0.021 A 
ATOM     40  N   UNL     1      35.828  -0.074  52.526  1.00  0.00    -0.264 NA
ATOM     41  C   UNL     1      35.696   0.183  51.214  1.00  0.00     0.111 A 
ENDBRANCH  34  36
ENDBRANCH  28  30
ENDBRANCH   6  28
TORSDOF 7
ENDMDL
MODEL 17
REMARK VINA RESULT:   -10.600      3.557     12.280
REMARK INTER + INTRA:         -13.953
REMARK INTER:                 -12.688
REMARK INTRA:                  -1.264
REMARK CONF_INDEPENDENT:        2.088
REMARK UNBOUND:                -1.264
REMARK SMILES Cc1cn(-c2cc(NC(=O)c3ccc(C)c(Nc4nccc(-c5cccnc5)n4)c3)cc(C(F)(F)F)c2)cn1
REMARK SMILES IDX 11 1 12 2 13 3 14 4 15 5 16 6 30 7 9 8 10 9 8 10 7 12 6 13
REMARK SMILES IDX 31 14 5 15 32 16 37 17 4 18 3 19 38 20 2 21 39 22 1 23 33 24
REMARK SMILES IDX 34 25 35 26 36 27 17 28 18 30 19 31 29 32 20 33 22 34 21 35
REMARK SMILES IDX 23 36 24 37 28 38 25 39 27 40 26 41
REMARK H PARENT 8 11 17 29
ROOT
ATOM      1  C   UNL     1      25.819   3.738  51.894  1.00  0.00     0.042 A 
ATOM      2  C   UNL     1      25.353   4.346  50.718  1.00  0.00     0.014 A 
ATOM      3  C   UNL     1      24.182   5.106  50.707  1.00  0.00     0.006 A 
ATOM      4  C   UNL     1      23.389   5.220  51.837  1.00  0.00    -0.027 A 
ATOM      5  C   UNL     1      22.111   6.046  51.808  1.00  0.00     0.046 C 
ATOM      6  C   UNL     1      23.792   4.533  52.981  1.00  0.00     0.045 A 
ATOM      7  C   UNL     1      24.983   3.797  52.979  1.00  0.00     0.040 A 
ENDROOT
BRANCH   1   8
ATOM      8  C   UNL     1      26.971   2.819  51.969  1.00  0.00     0.255 C 
ATOM      9  O   UNL     1      27.734   2.867  51.035  1.00  0.00    -0.269 OA
ATOM     10  N   UNL     1      27.179   2.227  53.155  1.00  0.00    -0.322 N 
ATOM     11  H   UNL     1      26.486   2.406  53.895  1.00  0.00     0.170 HD
BRANCH  10  12
ATOM     12  C   UNL     1      28.243   1.393  53.475  1.00  0.00     0.044 A 
ATOM     13  C   UNL     1      29.546   1.658  52.986  1.00  0.00     0.052 A 
ATOM     14  C   UNL     1      28.028   0.198  54.195  1.00  0.00     0.039 A 
ATOM     15  C   UNL     1      30.626   0.831  53.311  1.00  0.00     0.049 A 
ATOM     16  C   UNL     1      29.132  -0.631  54.543  1.00  0.00     0.060 A 
ATOM     17  C   UNL     1      30.406  -0.317  54.065  1.00  0.00     0.039 A 
BRANCH  15  18
ATOM     18  N   UNL     1      31.927   1.108  52.866  1.00  0.00    -0.306 N 
ATOM     19  C   UNL     1      32.602   0.597  51.759  1.00  0.00     0.116 A 
ATOM     20  C   UNL     1      32.839   1.869  53.482  1.00  0.00     0.204 A 
ATOM     21  C   UNL     1      33.863   1.080  51.773  1.00  0.00     0.056 A 
ATOM     22  N   UNL     1      33.982   1.899  52.841  1.00  0.00    -0.242 NA
ATOM     23  C   UNL     1      34.966   0.828  50.773  1.00  0.00     0.068 C 
ENDBRANCH  15  18
BRANCH  16  24
ATOM     24  C   UNL     1      28.883  -1.859  55.358  1.00  0.00     0.416 C 
ATOM     25  F   UNL     1      28.216  -1.653  56.510  1.00  0.00    -0.166 F 
ATOM     26  F   UNL     1      28.077  -2.700  54.719  1.00  0.00    -0.166 F 
ATOM     27  F   UNL     1      30.028  -2.448  55.760  1.00  0.00    -0.166 F 
ENDBRANCH  16  24
ENDBRANCH  10  12
ENDBRANCH   1   8
BRANCH   6  28
ATOM     28  N   UNL     1      23.098   4.763  54.176  1.00  0.00    -0.324 N 
ATOM     29  H   UNL     1      22.420   4.071  54.525  1.00  0.00     0.170 HD
BRANCH  28  30
ATOM     30  C   UNL     1      23.333   5.940  54.891  1.00  0.00     0.227 A 
ATOM     31  N   UNL     1      24.446   6.340  55.493  1.00  0.00    -0.221 NA
ATOM     32  N   UNL     1      22.163   6.626  54.951  1.00  0.00    -0.213 NA
ATOM     33  C   UNL     1      24.388   7.510  56.157  1.00  0.00     0.117 A 
ATOM     34  C   UNL     1      22.147   7.767  55.649  1.00  0.00     0.077 A 
ATOM     35  C   UNL     1      23.258   8.225  56.265  1.00  0.00     0.049 A 
BRANCH  34  36
ATOM     36  C   UNL     1      20.852   8.498  55.655  1.00  0.00     0.019 A 
ATOM     37  C   UNL     1      19.842   8.211  54.724  1.00  0.00     0.013 A 
ATOM     38  C   UNL     1      20.611   9.518  56.596  1.00  0.00     0.121 A 
ATOM     39  C   UNL     1      18.662   8.944  54.761  1.00  0.00     0.021 A 
ATOM     40  N   UNL     1      19.479  10.233  56.632  1.00  0.00    -0.264 NA
ATOM     41  C   UNL     1      18.520   9.921  55.746  1.00  0.00     0.111 A 
ENDBRANCH  34  36
ENDBRANCH  28  30
ENDBRANCH   6  28
TORSDOF 7
ENDMDL
MODEL 18
REMARK VINA RESULT:   -10.564      8.275     14.988
REMARK INTER + INTRA:         -14.008
REMARK INTER:                 -12.652
REMARK INTRA:                  -1.355
REMARK CONF_INDEPENDENT:        2.088
REMARK UNBOUND:                -1.355
REMARK SMILES Cc1cn(-c2cc(NC(=O)c3ccc(C)c(Nc4nccc(-c5cccnc5)n4)c3)cc(C(F)(F)F)c2)cn1
REMARK SMILES IDX 11 1 12 2 13 3 14 4 15 5 16 6 30 7 9 8 10 9 8 10 7 12 6 13
REMARK SMILES IDX 31 14 5 15 32 16 37 17 4 18 3 19 38 20 2 21 39 22 1 23 33 24
REMARK SMILES IDX 34 25 35 26 36 27 17 28 18 30 19 31 29 32 20 33 22 34 21 35
REMARK SMILES IDX 23 36 24 37 28 38 25 39 27 40 26 41
REMARK H PARENT 8 11 17 29
ROOT
ATOM      1  C   UNL     1      36.231  -1.529  49.486  1.00  0.00     0.042 A 
ATOM      2  C   UNL     1      35.549  -2.736  49.270  1.00  0.00     0.014 A 
ATOM      3  C   UNL     1      34.160  -2.817  49.386  1.00  0.00     0.006 A 
ATOM      4  C   UNL     1      33.409  -1.729  49.801  1.00  0.00    -0.027 A 
ATOM      5  C   UNL     1      31.896  -1.833  49.930  1.00  0.00     0.046 C 
ATOM      6  C   UNL     1      34.092  -0.555  50.117  1.00  0.00     0.045 A 
ATOM      7  C   UNL     1      35.484  -0.487  49.969  1.00  0.00     0.040 A 
ENDROOT
BRANCH   1   8
ATOM      8  C   UNL     1      37.700  -1.384  49.509  1.00  0.00     0.255 C 
ATOM      9  O   UNL     1      38.118  -0.452  50.153  1.00  0.00    -0.269 OA
ATOM     10  N   UNL     1      38.405  -2.422  49.037  1.00  0.00    -0.322 N 
ATOM     11  H   UNL     1      37.871  -3.207  48.636  1.00  0.00     0.170 HD
BRANCH  10  12
ATOM     12  C   UNL     1      39.789  -2.537  49.038  1.00  0.00     0.044 A 
ATOM     13  C   UNL     1      40.518  -2.530  50.253  1.00  0.00     0.052 A 
ATOM     14  C   UNL     1      40.511  -2.541  47.824  1.00  0.00     0.039 A 
ATOM     15  C   UNL     1      41.910  -2.654  50.265  1.00  0.00     0.049 A 
ATOM     16  C   UNL     1      41.927  -2.690  47.839  1.00  0.00     0.060 A 
ATOM     17  C   UNL     1      42.604  -2.710  49.061  1.00  0.00     0.039 A 
BRANCH  15  18
ATOM     18  N   UNL     1      42.638  -2.691  51.465  1.00  0.00    -0.306 N 
ATOM     19  C   UNL     1      42.675  -3.690  52.436  1.00  0.00     0.116 A 
ATOM     20  C   UNL     1      43.391  -1.709  51.975  1.00  0.00     0.204 A 
ATOM     21  C   UNL     1      43.444  -3.256  53.458  1.00  0.00     0.056 A 
ATOM     22  N   UNL     1      43.909  -2.028  53.136  1.00  0.00    -0.242 NA
ATOM     23  C   UNL     1      43.800  -3.988  54.729  1.00  0.00     0.068 C 
ENDBRANCH  15  18
BRANCH  16  24
ATOM     24  C   UNL     1      42.659  -2.752  46.538  1.00  0.00     0.416 C 
ATOM     25  F   UNL     1      43.959  -2.401  46.599  1.00  0.00    -0.166 F 
ATOM     26  F   UNL     1      42.733  -4.001  46.091  1.00  0.00    -0.166 F 
ATOM     27  F   UNL     1      42.148  -1.906  45.621  1.00  0.00    -0.166 F 
ENDBRANCH  16  24
ENDBRANCH  10  12
ENDBRANCH   1   8
BRANCH   6  28
ATOM     28  N   UNL     1      33.346   0.601  50.379  1.00  0.00    -0.324 N 
ATOM     29  H   UNL     1      32.945   1.147  49.604  1.00  0.00     0.170 HD
BRANCH  28  30
ATOM     30  C   UNL     1      33.150   1.006  51.701  1.00  0.00     0.227 A 
ATOM     31  N   UNL     1      33.833   1.897  52.409  1.00  0.00    -0.221 NA
ATOM     32  N   UNL     1      32.143   0.255  52.217  1.00  0.00    -0.213 NA
ATOM     33  C   UNL     1      33.457   2.068  53.690  1.00  0.00     0.117 A 
ATOM     34  C   UNL     1      31.827   0.438  53.504  1.00  0.00     0.077 A 
ATOM     35  C   UNL     1      32.481   1.346  54.261  1.00  0.00     0.049 A 
BRANCH  34  36
ATOM     36  C   UNL     1      30.696  -0.382  54.011  1.00  0.00     0.019 A 
ATOM     37  C   UNL     1      29.585   0.204  54.639  1.00  0.00     0.013 A 
ATOM     38  C   UNL     1      30.718  -1.785  53.886  1.00  0.00     0.121 A 
ATOM     39  C   UNL     1      28.570  -0.614  55.116  1.00  0.00     0.021 A 
ATOM     40  N   UNL     1      29.745  -2.580  54.351  1.00  0.00    -0.264 NA
ATOM     41  C   UNL     1      28.683  -1.991  54.924  1.00  0.00     0.111 A 
ENDBRANCH  34  36
ENDBRANCH  28  30
ENDBRANCH   6  28
TORSDOF 7
ENDMDL
MODEL 19
REMARK VINA RESULT:   -10.544      5.742     10.824
REMARK INTER + INTRA:         -13.778
REMARK INTER:                 -12.632
REMARK INTRA:                  -1.145
REMARK CONF_INDEPENDENT:        2.088
REMARK UNBOUND:                -1.145
REMARK SMILES Cc1cn(-c2cc(NC(=O)c3ccc(C)c(Nc4nccc(-c5cccnc5)n4)c3)cc(C(F)(F)F)c2)cn1
REMARK SMILES IDX 11 1 12 2 13 3 14 4 15 5 16 6 30 7 9 8 10 9 8 10 7 12 6 13
REMARK SMILES IDX 31 14 5 15 32 16 37 17 4 18 3 19 38 20 2 21 39 22 1 23 33 24
REMARK SMILES IDX 34 25 35 26 36 27 17 28 18 30 19 31 29 32 20 33 22 34 21 35
REMARK SMILES IDX 23 36 24 37 28 38 25 39 27 40 26 41
REMARK H PARENT 8 11 17 29
ROOT
ATOM      1  C   UNL     1      22.320   6.467  55.260  1.00  0.00     0.042 A 
ATOM      2  C   UNL     1      21.591   7.606  54.885  1.00  0.00     0.014 A 
ATOM      3  C   UNL     1      21.131   8.520  55.834  1.00  0.00     0.006 A 
ATOM      4  C   UNL     1      21.305   8.296  57.190  1.00  0.00    -0.027 A 
ATOM      5  C   UNL     1      20.792   9.298  58.215  1.00  0.00     0.046 C 
ATOM      6  C   UNL     1      21.937   7.114  57.574  1.00  0.00     0.045 A 
ATOM      7  C   UNL     1      22.413   6.222  56.605  1.00  0.00     0.040 A 
ENDROOT
BRANCH   1   8
ATOM      8  C   UNL     1      22.732   5.389  54.340  1.00  0.00     0.255 C 
ATOM      9  O   UNL     1      21.843   4.672  53.950  1.00  0.00    -0.269 OA
ATOM     10  N   UNL     1      23.976   5.475  53.846  1.00  0.00    -0.322 N 
ATOM     11  H   UNL     1      24.566   6.244  54.197  1.00  0.00     0.170 HD
BRANCH  10  12
ATOM     12  C   UNL     1      24.543   4.623  52.907  1.00  0.00     0.044 A 
ATOM     13  C   UNL     1      23.795   4.169  51.792  1.00  0.00     0.052 A 
ATOM     14  C   UNL     1      25.837   4.094  53.105  1.00  0.00     0.039 A 
ATOM     15  C   UNL     1      24.359   3.320  50.837  1.00  0.00     0.049 A 
ATOM     16  C   UNL     1      26.418   3.246  52.119  1.00  0.00     0.060 A 
ATOM     17  C   UNL     1      25.654   2.848  51.019  1.00  0.00     0.039 A 
BRANCH  15  18
ATOM     18  N   UNL     1      23.640   2.898  49.708  1.00  0.00    -0.306 N 
ATOM     19  C   UNL     1      22.849   1.762  49.547  1.00  0.00     0.116 A 
ATOM     20  C   UNL     1      23.642   3.470  48.498  1.00  0.00     0.204 A 
ATOM     21  C   UNL     1      22.424   1.722  48.265  1.00  0.00     0.056 A 
ATOM     22  N   UNL     1      22.904   2.816  47.634  1.00  0.00    -0.242 NA
ATOM     23  C   UNL     1      21.528   0.695  47.616  1.00  0.00     0.068 C 
ENDBRANCH  15  18
BRANCH  16  24
ATOM     24  C   UNL     1      27.811   2.749  52.326  1.00  0.00     0.416 C 
ATOM     25  F   UNL     1      28.714   3.195  51.429  1.00  0.00    -0.166 F 
ATOM     26  F   UNL     1      28.314   3.200  53.469  1.00  0.00    -0.166 F 
ATOM     27  F   UNL     1      27.899   1.407  52.218  1.00  0.00    -0.166 F 
ENDBRANCH  16  24
ENDBRANCH  10  12
ENDBRANCH   1   8
BRANCH   6  28
ATOM     28  N   UNL     1      22.268   6.943  58.924  1.00  0.00    -0.324 N 
ATOM     29  H   UNL     1      21.736   6.284  59.510  1.00  0.00     0.170 HD
BRANCH  28  30
ATOM     30  C   UNL     1      23.325   7.674  59.471  1.00  0.00     0.227 A 
ATOM     31  N   UNL     1      23.574   8.974  59.377  1.00  0.00    -0.221 NA
ATOM     32  N   UNL     1      24.157   6.796  60.088  1.00  0.00    -0.213 NA
ATOM     33  C   UNL     1      24.699   9.419  59.968  1.00  0.00     0.117 A 
ATOM     34  C   UNL     1      25.279   7.281  60.633  1.00  0.00     0.077 A 
ATOM     35  C   UNL     1      25.568   8.599  60.580  1.00  0.00     0.049 A 
BRANCH  34  36
ATOM     36  C   UNL     1      26.138   6.286  61.327  1.00  0.00     0.019 A 
ATOM     37  C   UNL     1      26.495   6.437  62.677  1.00  0.00     0.013 A 
ATOM     38  C   UNL     1      26.633   5.163  60.636  1.00  0.00     0.121 A 
ATOM     39  C   UNL     1      27.321   5.488  63.266  1.00  0.00     0.021 A 
ATOM     40  N   UNL     1      27.436   4.250  61.196  1.00  0.00    -0.264 NA
ATOM     41  C   UNL     1      27.741   4.405  62.495  1.00  0.00     0.111 A 
ENDBRANCH  34  36
ENDBRANCH  28  30
ENDBRANCH   6  28
TORSDOF 7
ENDMDL
MODEL 20
REMARK VINA RESULT:   -10.373      4.599      7.423
REMARK INTER + INTRA:         -13.665
REMARK INTER:                 -12.461
REMARK INTRA:                  -1.203
REMARK CONF_INDEPENDENT:        2.088
REMARK UNBOUND:                -1.203
REMARK SMILES Cc1cn(-c2cc(NC(=O)c3ccc(C)c(Nc4nccc(-c5cccnc5)n4)c3)cc(C(F)(F)F)c2)cn1
REMARK SMILES IDX 11 1 12 2 13 3 14 4 15 5 16 6 30 7 9 8 10 9 8 10 7 12 6 13
REMARK SMILES IDX 31 14 5 15 32 16 37 17 4 18 3 19 38 20 2 21 39 22 1 23 33 24
REMARK SMILES IDX 34 25 35 26 36 27 17 28 18 30 19 31 29 32 20 33 22 34 21 35
REMARK SMILES IDX 23 36 24 37 28 38 25 39 27 40 26 41
REMARK H PARENT 8 11 17 29
ROOT
ATOM      1  C   UNL     1      23.270   4.841  52.861  1.00  0.00     0.042 A 
ATOM      2  C   UNL     1      22.805   5.471  51.697  1.00  0.00     0.014 A 
ATOM      3  C   UNL     1      23.242   5.076  50.432  1.00  0.00     0.006 A 
ATOM      4  C   UNL     1      24.216   4.102  50.280  1.00  0.00    -0.027 A 
ATOM      5  C   UNL     1      24.690   3.687  48.894  1.00  0.00     0.046 C 
ATOM      6  C   UNL     1      24.758   3.545  51.437  1.00  0.00     0.045 A 
ATOM      7  C   UNL     1      24.288   3.937  52.697  1.00  0.00     0.040 A 
ENDROOT
BRANCH   1   8
ATOM      8  C   UNL     1      22.960   5.275  54.237  1.00  0.00     0.255 C 
ATOM      9  O   UNL     1      22.153   4.597  54.825  1.00  0.00    -0.269 OA
ATOM     10  N   UNL     1      23.776   6.201  54.763  1.00  0.00    -0.322 N 
ATOM     11  H   UNL     1      24.508   6.583  54.148  1.00  0.00     0.170 HD
BRANCH  10  12
ATOM     12  C   UNL     1      23.722   6.693  56.061  1.00  0.00     0.044 A 
ATOM     13  C   UNL     1      24.677   6.294  57.030  1.00  0.00     0.052 A 
ATOM     14  C   UNL     1      22.646   7.506  56.477  1.00  0.00     0.039 A 
ATOM     15  C   UNL     1      24.637   6.790  58.336  1.00  0.00     0.049 A 
ATOM     16  C   UNL     1      22.620   8.029  57.802  1.00  0.00     0.060 A 
ATOM     17  C   UNL     1      23.598   7.633  58.717  1.00  0.00     0.039 A 
BRANCH  15  18
ATOM     18  N   UNL     1      25.602   6.434  59.290  1.00  0.00    -0.306 N 
ATOM     19  C   UNL     1      25.418   5.892  60.561  1.00  0.00     0.116 A 
ATOM     20  C   UNL     1      26.923   6.632  59.207  1.00  0.00     0.204 A 
ATOM     21  C   UNL     1      26.627   5.793  61.157  1.00  0.00     0.056 A 
ATOM     22  N   UNL     1      27.558   6.232  60.281  1.00  0.00    -0.242 NA
ATOM     23  C   UNL     1      26.944   5.249  62.528  1.00  0.00     0.068 C 
ENDBRANCH  15  18
BRANCH  16  24
ATOM     24  C   UNL     1      21.501   8.936  58.198  1.00  0.00     0.416 C 
ATOM     25  F   UNL     1      20.321   8.680  57.599  1.00  0.00    -0.166 F 
ATOM     26  F   UNL     1      21.196   8.786  59.481  1.00  0.00    -0.166 F 
ATOM     27  F   UNL     1      21.744  10.223  57.873  1.00  0.00    -0.166 F 
ENDBRANCH  16  24
ENDBRANCH  10  12
ENDBRANCH   1   8
BRANCH   6  28
ATOM     28  N   UNL     1      25.622   2.449  51.308  1.00  0.00    -0.324 N 
ATOM     29  H   UNL     1      25.297   1.582  50.857  1.00  0.00     0.170 HD
BRANCH  28  30
ATOM     30  C   UNL     1      26.926   2.542  51.796  1.00  0.00     0.227 A 
ATOM     31  N   UNL     1      27.807   3.522  51.638  1.00  0.00    -0.221 NA
ATOM     32  N   UNL     1      27.211   1.377  52.434  1.00  0.00    -0.213 NA
ATOM     33  C   UNL     1      29.024   3.336  52.183  1.00  0.00     0.117 A 
ATOM     34  C   UNL     1      28.444   1.225  52.931  1.00  0.00     0.077 A 
ATOM     35  C   UNL     1      29.370   2.201  52.811  1.00  0.00     0.049 A 
BRANCH  34  36
ATOM     36  C   UNL     1      28.695  -0.051  53.649  1.00  0.00     0.019 A 
ATOM     37  C   UNL     1      27.906  -0.448  54.741  1.00  0.00     0.013 A 
ATOM     38  C   UNL     1      29.751  -0.897  53.258  1.00  0.00     0.121 A 
ATOM     39  C   UNL     1      28.202  -1.640  55.390  1.00  0.00     0.021 A 
ATOM     40  N   UNL     1      30.047  -2.043  53.884  1.00  0.00    -0.264 NA
ATOM     41  C   UNL     1      29.260  -2.411  54.909  1.00  0.00     0.111 A 
ENDBRANCH  34  36
ENDBRANCH  28  30
ENDBRANCH   6  28
TORSDOF 7
ENDMDL
