MODEL 1
REMARK VINA RESULT:   -15.154      0.000      0.000
REMARK INTER + INTRA:         -18.418
REMARK INTER:                 -17.242
REMARK INTRA:                  -1.176
REMARK CONF_INDEPENDENT:        2.088
REMARK UNBOUND:                -1.176
REMARK SMILES Cc1cn(-c2cc(NC(=O)c3ccc(C)c(Nc4nccc(-c5cccnc5)n4)c3)cc(C(F)(F)F)c2)cn1
REMARK SMILES IDX 11 1 12 2 13 3 14 4 15 5 16 6 30 7 9 8 10 9 8 10 7 12 6 13
REMARK SMILES IDX 31 14 5 15 32 16 37 17 4 18 3 19 38 20 2 21 39 22 1 23 33 24
REMARK SMILES IDX 34 25 35 26 36 27 17 28 18 30 19 31 29 32 20 33 22 34 21 35
REMARK SMILES IDX 23 36 24 37 28 38 25 39 27 40 26 41
REMARK H PARENT 8 11 17 29
ROOT
ATOM      1  C   UNL     1      27.974   1.859  53.218  1.00  0.00     0.042 A 
ATOM      2  C   UNL     1      27.692   1.347  54.493  1.00  0.00     0.014 A 
ATOM      3  C   UNL     1      28.411   0.273  55.021  1.00  0.00     0.006 A 
ATOM      4  C   UNL     1      29.376  -0.383  54.272  1.00  0.00    -0.027 A 
ATOM      5  C   UNL     1      30.147  -1.557  54.858  1.00  0.00     0.046 C 
ATOM      6  C   UNL     1      29.588   0.055  52.966  1.00  0.00     0.045 A 
ATOM      7  C   UNL     1      28.874   1.151  52.464  1.00  0.00     0.040 A 
ENDROOT
BRANCH   1   8
ATOM      8  C   UNL     1      27.185   2.902  52.534  1.00  0.00     0.255 C 
ATOM      9  O   UNL     1      27.526   3.153  51.404  1.00  0.00    -0.269 OA
ATOM     10  N   UNL     1      26.043   3.269  53.135  1.00  0.00    -0.322 N 
ATOM     11  H   UNL     1      25.841   2.847  54.052  1.00  0.00     0.170 HD
BRANCH  10  12
ATOM     12  C   UNL     1      25.109   4.167  52.634  1.00  0.00     0.044 A 
ATOM     13  C   UNL     1      24.181   4.807  53.493  1.00  0.00     0.052 A 
ATOM     14  C   UNL     1      24.984   4.371  51.242  1.00  0.00     0.039 A 
ATOM     15  C   UNL     1      23.244   5.719  53.000  1.00  0.00     0.049 A 
ATOM     16  C   UNL     1      24.044   5.317  50.744  1.00  0.00     0.060 A 
ATOM     17  C   UNL     1      23.168   5.949  51.630  1.00  0.00     0.039 A 
BRANCH  15  18
ATOM     18  N   UNL     1      22.349   6.389  53.847  1.00  0.00    -0.306 N 
ATOM     19  C   UNL     1      22.042   6.125  55.181  1.00  0.00     0.116 A 
ATOM     20  C   UNL     1      21.521   7.385  53.511  1.00  0.00     0.204 A 
ATOM     21  C   UNL     1      21.062   6.972  55.564  1.00  0.00     0.056 A 
ATOM     22  N   UNL     1      20.773   7.774  54.515  1.00  0.00    -0.242 NA
ATOM     23  C   UNL     1      20.409   7.086  56.920  1.00  0.00     0.068 C 
ENDBRANCH  15  18
BRANCH  16  24
ATOM     24  C   UNL     1      23.975   5.558  49.271  1.00  0.00     0.416 C 
ATOM     25  F   UNL     1      24.733   6.579  48.824  1.00  0.00    -0.166 F 
ATOM     26  F   UNL     1      24.473   4.529  48.595  1.00  0.00    -0.166 F 
ATOM     27  F   UNL     1      22.732   5.889  48.863  1.00  0.00    -0.166 F 
ENDBRANCH  16  24
ENDBRANCH  10  12
ENDBRANCH   1   8
BRANCH   6  28
ATOM     28  N   UNL     1      30.665  -0.483  52.250  1.00  0.00    -0.324 N 
ATOM     29  H   UNL     1      30.525  -1.297  51.636  1.00  0.00     0.170 HD
BRANCH  28  30
ATOM     30  C   UNL     1      31.930   0.095  52.374  1.00  0.00     0.227 A 
ATOM     31  N   UNL     1      32.326   1.064  53.191  1.00  0.00    -0.221 NA
ATOM     32  N   UNL     1      32.731  -0.458  51.427  1.00  0.00    -0.213 NA
ATOM     33  C   UNL     1      33.605   1.469  53.074  1.00  0.00     0.117 A 
ATOM     34  C   UNL     1      33.984  -0.000  51.328  1.00  0.00     0.077 A 
ATOM     35  C   UNL     1      34.440   0.971  52.148  1.00  0.00     0.049 A 
BRANCH  34  36
ATOM     36  C   UNL     1      34.830  -0.662  50.300  1.00  0.00     0.019 A 
ATOM     37  C   UNL     1      36.115  -0.189  49.989  1.00  0.00     0.013 A 
ATOM     38  C   UNL     1      34.352  -1.783  49.594  1.00  0.00     0.121 A 
ATOM     39  C   UNL     1      36.850  -0.832  49.002  1.00  0.00     0.021 A 
ATOM     40  N   UNL     1      35.053  -2.403  48.636  1.00  0.00    -0.264 NA
ATOM     41  C   UNL     1      36.289  -1.945  48.377  1.00  0.00     0.111 A 
ENDBRANCH  34  36
ENDBRANCH  28  30
ENDBRANCH   6  28
TORSDOF 7
ENDMDL
MODEL 2
REMARK VINA RESULT:   -14.095      2.223      3.666
REMARK INTER + INTRA:         -17.377
REMARK INTER:                 -16.183
REMARK INTRA:                  -1.194
REMARK CONF_INDEPENDENT:        2.088
REMARK UNBOUND:                -1.194
REMARK SMILES Cc1cn(-c2cc(NC(=O)c3ccc(C)c(Nc4nccc(-c5cccnc5)n4)c3)cc(C(F)(F)F)c2)cn1
REMARK SMILES IDX 11 1 12 2 13 3 14 4 15 5 16 6 30 7 9 8 10 9 8 10 7 12 6 13
REMARK SMILES IDX 31 14 5 15 32 16 37 17 4 18 3 19 38 20 2 21 39 22 1 23 33 24
REMARK SMILES IDX 34 25 35 26 36 27 17 28 18 30 19 31 29 32 20 33 22 34 21 35
REMARK SMILES IDX 23 36 24 37 28 38 25 39 27 40 26 41
REMARK H PARENT 8 11 17 29
ROOT
ATOM      1  C   UNL     1      28.116   1.590  53.513  1.00  0.00     0.042 A 
ATOM      2  C   UNL     1      27.919   1.036  54.786  1.00  0.00     0.014 A 
ATOM      3  C   UNL     1      28.704  -0.022  55.248  1.00  0.00     0.006 A 
ATOM      4  C   UNL     1      29.653  -0.621  54.435  1.00  0.00    -0.027 A 
ATOM      5  C   UNL     1      30.496  -1.780  54.949  1.00  0.00     0.046 C 
ATOM      6  C   UNL     1      29.782  -0.142  53.132  1.00  0.00     0.045 A 
ATOM      7  C   UNL     1      29.002   0.937  52.696  1.00  0.00     0.040 A 
ENDROOT
BRANCH   1   8
ATOM      8  C   UNL     1      27.255   2.620  52.899  1.00  0.00     0.255 C 
ATOM      9  O   UNL     1      27.595   2.994  51.803  1.00  0.00    -0.269 OA
ATOM     10  N   UNL     1      26.074   2.837  53.497  1.00  0.00    -0.322 N 
ATOM     11  H   UNL     1      25.890   2.322  54.370  1.00  0.00     0.170 HD
BRANCH  10  12
ATOM     12  C   UNL     1      25.077   3.694  53.048  1.00  0.00     0.044 A 
ATOM     13  C   UNL     1      24.910   3.954  51.666  1.00  0.00     0.052 A 
ATOM     14  C   UNL     1      24.286   4.418  53.967  1.00  0.00     0.039 A 
ATOM     15  C   UNL     1      23.904   4.807  51.204  1.00  0.00     0.049 A 
ATOM     16  C   UNL     1      23.247   5.269  53.493  1.00  0.00     0.060 A 
ATOM     17  C   UNL     1      23.098   5.474  52.120  1.00  0.00     0.039 A 
BRANCH  15  18
ATOM     18  N   UNL     1      23.704   5.038  49.834  1.00  0.00    -0.306 N 
ATOM     19  C   UNL     1      23.802   6.234  49.125  1.00  0.00     0.116 A 
ATOM     20  C   UNL     1      23.278   4.152  48.926  1.00  0.00     0.204 A 
ATOM     21  C   UNL     1      23.438   5.996  47.845  1.00  0.00     0.056 A 
ATOM     22  N   UNL     1      23.146   4.681  47.734  1.00  0.00    -0.242 NA
ATOM     23  C   UNL     1      23.400   6.972  46.694  1.00  0.00     0.068 C 
ENDBRANCH  15  18
BRANCH  16  24
ATOM     24  C   UNL     1      22.385   5.977  54.488  1.00  0.00     0.416 C 
ATOM     25  F   UNL     1      23.011   6.347  55.623  1.00  0.00    -0.166 F 
ATOM     26  F   UNL     1      21.968   7.145  54.012  1.00  0.00    -0.166 F 
ATOM     27  F   UNL     1      21.369   5.206  54.927  1.00  0.00    -0.166 F 
ENDBRANCH  16  24
ENDBRANCH  10  12
ENDBRANCH   1   8
BRANCH   6  28
ATOM     28  N   UNL     1      30.840  -0.620  52.348  1.00  0.00    -0.324 N 
ATOM     29  H   UNL     1      30.701  -1.428  51.726  1.00  0.00     0.170 HD
BRANCH  28  30
ATOM     30  C   UNL     1      32.084   0.010  52.417  1.00  0.00     0.227 A 
ATOM     31  N   UNL     1      32.465   1.018  53.191  1.00  0.00    -0.221 NA
ATOM     32  N   UNL     1      32.879  -0.543  51.465  1.00  0.00    -0.213 NA
ATOM     33  C   UNL     1      33.723   1.468  53.023  1.00  0.00     0.117 A 
ATOM     34  C   UNL     1      34.110  -0.042  51.314  1.00  0.00     0.077 A 
ATOM     35  C   UNL     1      34.550   0.973  52.089  1.00  0.00     0.049 A 
BRANCH  34  36
ATOM     36  C   UNL     1      34.952  -0.704  50.284  1.00  0.00     0.019 A 
ATOM     37  C   UNL     1      36.259  -0.268  50.011  1.00  0.00     0.013 A 
ATOM     38  C   UNL     1      34.449  -1.787  49.537  1.00  0.00     0.121 A 
ATOM     39  C   UNL     1      36.990  -0.909  49.019  1.00  0.00     0.021 A 
ATOM     40  N   UNL     1      35.146  -2.403  48.574  1.00  0.00    -0.264 NA
ATOM     41  C   UNL     1      36.402  -1.983  48.351  1.00  0.00     0.111 A 
ENDBRANCH  34  36
ENDBRANCH  28  30
ENDBRANCH   6  28
TORSDOF 7
ENDMDL
MODEL 3
REMARK VINA RESULT:   -12.959      1.105      1.628
REMARK INTER + INTRA:         -16.192
REMARK INTER:                 -15.047
REMARK INTRA:                  -1.145
REMARK CONF_INDEPENDENT:        2.088
REMARK UNBOUND:                -1.145
REMARK SMILES Cc1cn(-c2cc(NC(=O)c3ccc(C)c(Nc4nccc(-c5cccnc5)n4)c3)cc(C(F)(F)F)c2)cn1
REMARK SMILES IDX 11 1 12 2 13 3 14 4 15 5 16 6 30 7 9 8 10 9 8 10 7 12 6 13
REMARK SMILES IDX 31 14 5 15 32 16 37 17 4 18 3 19 38 20 2 21 39 22 1 23 33 24
REMARK SMILES IDX 34 25 35 26 36 27 17 28 18 30 19 31 29 32 20 33 22 34 21 35
REMARK SMILES IDX 23 36 24 37 28 38 25 39 27 40 26 41
REMARK H PARENT 8 11 17 29
ROOT
ATOM      1  C   UNL     1      28.301   1.817  53.090  1.00  0.00     0.042 A 
ATOM      2  C   UNL     1      27.918   0.997  54.163  1.00  0.00     0.014 A 
ATOM      3  C   UNL     1      28.770   0.011  54.663  1.00  0.00     0.006 A 
ATOM      4  C   UNL     1      29.992  -0.253  54.067  1.00  0.00    -0.027 A 
ATOM      5  C   UNL     1      30.907  -1.337  54.620  1.00  0.00     0.046 C 
ATOM      6  C   UNL     1      30.333   0.488  52.937  1.00  0.00     0.045 A 
ATOM      7  C   UNL     1      29.476   1.490  52.465  1.00  0.00     0.040 A 
ENDROOT
BRANCH   1   8
ATOM      8  C   UNL     1      27.420   2.792  52.419  1.00  0.00     0.255 C 
ATOM      9  O   UNL     1      27.659   2.989  51.252  1.00  0.00    -0.269 OA
ATOM     10  N   UNL     1      26.317   3.155  53.091  1.00  0.00    -0.322 N 
ATOM     11  H   UNL     1      26.205   2.779  54.043  1.00  0.00     0.170 HD
BRANCH  10  12
ATOM     12  C   UNL     1      25.312   3.991  52.621  1.00  0.00     0.044 A 
ATOM     13  C   UNL     1      24.362   4.556  53.507  1.00  0.00     0.052 A 
ATOM     14  C   UNL     1      25.142   4.199  51.235  1.00  0.00     0.039 A 
ATOM     15  C   UNL     1      23.354   5.406  53.045  1.00  0.00     0.049 A 
ATOM     16  C   UNL     1      24.128   5.083  50.768  1.00  0.00     0.060 A 
ATOM     17  C   UNL     1      23.230   5.643  51.680  1.00  0.00     0.039 A 
BRANCH  15  18
ATOM     18  N   UNL     1      22.434   6.004  53.920  1.00  0.00    -0.306 N 
ATOM     19  C   UNL     1      21.941   7.307  53.914  1.00  0.00     0.116 A 
ATOM     20  C   UNL     1      21.900   5.456  55.018  1.00  0.00     0.204 A 
ATOM     21  C   UNL     1      21.145   7.462  54.995  1.00  0.00     0.056 A 
ATOM     22  N   UNL     1      21.107   6.283  55.654  1.00  0.00    -0.242 NA
ATOM     23  C   UNL     1      20.370   8.689  55.410  1.00  0.00     0.068 C 
ENDBRANCH  15  18
BRANCH  16  24
ATOM     24  C   UNL     1      24.009   5.333  49.299  1.00  0.00     0.416 C 
ATOM     25  F   UNL     1      24.292   6.592  48.911  1.00  0.00    -0.166 F 
ATOM     26  F   UNL     1      24.906   4.627  48.621  1.00  0.00    -0.166 F 
ATOM     27  F   UNL     1      22.752   5.141  48.847  1.00  0.00    -0.166 F 
ENDBRANCH  16  24
ENDBRANCH  10  12
ENDBRANCH   1   8
BRANCH   6  28
ATOM     28  N   UNL     1      31.627   0.354  52.417  1.00  0.00    -0.324 N 
ATOM     29  H   UNL     1      32.426   0.797  52.892  1.00  0.00     0.170 HD
BRANCH  28  30
ATOM     30  C   UNL     1      31.824  -0.386  51.249  1.00  0.00     0.227 A 
ATOM     31  N   UNL     1      30.921  -0.956  50.462  1.00  0.00    -0.221 NA
ATOM     32  N   UNL     1      33.164  -0.513  51.063  1.00  0.00    -0.213 NA
ATOM     33  C   UNL     1      31.389  -1.656  49.411  1.00  0.00     0.117 A 
ATOM     34  C   UNL     1      33.581  -1.245  50.024  1.00  0.00     0.077 A 
ATOM     35  C   UNL     1      32.700  -1.830  49.184  1.00  0.00     0.049 A 
BRANCH  34  36
ATOM     36  C   UNL     1      35.054  -1.323  49.843  1.00  0.00     0.019 A 
ATOM     37  C   UNL     1      35.922  -0.421  50.479  1.00  0.00     0.013 A 
ATOM     38  C   UNL     1      35.621  -2.306  49.009  1.00  0.00     0.121 A 
ATOM     39  C   UNL     1      37.288  -0.527  50.254  1.00  0.00     0.021 A 
ATOM     40  N   UNL     1      36.937  -2.408  48.782  1.00  0.00    -0.264 NA
ATOM     41  C   UNL     1      37.746  -1.548  49.422  1.00  0.00     0.111 A 
ENDBRANCH  34  36
ENDBRANCH  28  30
ENDBRANCH   6  28
TORSDOF 7
ENDMDL
MODEL 4
REMARK VINA RESULT:   -12.374      1.625      3.692
REMARK INTER + INTRA:         -16.031
REMARK INTER:                 -14.462
REMARK INTRA:                  -1.569
REMARK CONF_INDEPENDENT:        2.088
REMARK UNBOUND:                -1.569
REMARK SMILES Cc1cn(-c2cc(NC(=O)c3ccc(C)c(Nc4nccc(-c5cccnc5)n4)c3)cc(C(F)(F)F)c2)cn1
REMARK SMILES IDX 11 1 12 2 13 3 14 4 15 5 16 6 30 7 9 8 10 9 8 10 7 12 6 13
REMARK SMILES IDX 31 14 5 15 32 16 37 17 4 18 3 19 38 20 2 21 39 22 1 23 33 24
REMARK SMILES IDX 34 25 35 26 36 27 17 28 18 30 19 31 29 32 20 33 22 34 21 35
REMARK SMILES IDX 23 36 24 37 28 38 25 39 27 40 26 41
REMARK H PARENT 8 11 17 29
ROOT
ATOM      1  C   UNL     1      27.620   1.724  52.997  1.00  0.00     0.042 A 
ATOM      2  C   UNL     1      27.309   1.111  54.219  1.00  0.00     0.014 A 
ATOM      3  C   UNL     1      28.017  -0.001  54.676  1.00  0.00     0.006 A 
ATOM      4  C   UNL     1      29.002  -0.594  53.902  1.00  0.00    -0.027 A 
ATOM      5  C   UNL     1      29.762  -1.811  54.410  1.00  0.00     0.046 C 
ATOM      6  C   UNL     1      29.246  -0.051  52.641  1.00  0.00     0.045 A 
ATOM      7  C   UNL     1      28.541   1.080  52.211  1.00  0.00     0.040 A 
ENDROOT
BRANCH   1   8
ATOM      8  C   UNL     1      26.845   2.819  52.380  1.00  0.00     0.255 C 
ATOM      9  O   UNL     1      27.146   3.091  51.244  1.00  0.00    -0.269 OA
ATOM     10  N   UNL     1      25.746   3.211  53.042  1.00  0.00    -0.322 N 
ATOM     11  H   UNL     1      25.567   2.768  53.955  1.00  0.00     0.170 HD
BRANCH  10  12
ATOM     12  C   UNL     1      24.828   4.160  52.610  1.00  0.00     0.044 A 
ATOM     13  C   UNL     1      23.906   4.744  53.513  1.00  0.00     0.052 A 
ATOM     14  C   UNL     1      24.713   4.474  51.238  1.00  0.00     0.039 A 
ATOM     15  C   UNL     1      22.986   5.707  53.090  1.00  0.00     0.049 A 
ATOM     16  C   UNL     1      23.789   5.471  50.812  1.00  0.00     0.060 A 
ATOM     17  C   UNL     1      22.919   6.045  51.742  1.00  0.00     0.039 A 
BRANCH  15  18
ATOM     18  N   UNL     1      22.097   6.322  53.984  1.00  0.00    -0.306 N 
ATOM     19  C   UNL     1      21.552   7.604  53.935  1.00  0.00     0.116 A 
ATOM     20  C   UNL     1      21.654   5.823  55.144  1.00  0.00     0.204 A 
ATOM     21  C   UNL     1      20.818   7.794  55.052  1.00  0.00     0.056 A 
ATOM     22  N   UNL     1      20.867   6.656  55.780  1.00  0.00    -0.242 NA
ATOM     23  C   UNL     1      20.020   9.014  55.443  1.00  0.00     0.068 C 
ENDBRANCH  15  18
BRANCH  16  24
ATOM     24  C   UNL     1      23.730   5.827  49.362  1.00  0.00     0.416 C 
ATOM     25  F   UNL     1      22.751   5.217  48.665  1.00  0.00    -0.166 F 
ATOM     26  F   UNL     1      23.427   7.110  49.198  1.00  0.00    -0.166 F 
ATOM     27  F   UNL     1      24.852   5.474  48.701  1.00  0.00    -0.166 F 
ENDBRANCH  16  24
ENDBRANCH  10  12
ENDBRANCH   1   8
BRANCH   6  28
ATOM     28  N   UNL     1      30.341  -0.528  51.911  1.00  0.00    -0.324 N 
ATOM     29  H   UNL     1      30.224  -1.308  51.248  1.00  0.00     0.170 HD
BRANCH  28  30
ATOM     30  C   UNL     1      31.595   0.061  52.088  1.00  0.00     0.227 A 
ATOM     31  N   UNL     1      32.734  -0.201  51.461  1.00  0.00    -0.221 NA
ATOM     32  N   UNL     1      31.492   0.946  53.113  1.00  0.00    -0.213 NA
ATOM     33  C   UNL     1      33.818   0.492  51.860  1.00  0.00     0.117 A 
ATOM     34  C   UNL     1      32.603   1.586  53.496  1.00  0.00     0.077 A 
ATOM     35  C   UNL     1      33.783   1.367  52.877  1.00  0.00     0.049 A 
BRANCH  34  36
ATOM     36  C   UNL     1      32.431   2.569  54.597  1.00  0.00     0.019 A 
ATOM     37  C   UNL     1      33.348   3.612  54.803  1.00  0.00     0.013 A 
ATOM     38  C   UNL     1      31.339   2.468  55.482  1.00  0.00     0.121 A 
ATOM     39  C   UNL     1      33.150   4.485  55.865  1.00  0.00     0.021 A 
ATOM     40  N   UNL     1      31.147   3.302  56.512  1.00  0.00    -0.264 NA
ATOM     41  C   UNL     1      32.026   4.306  56.669  1.00  0.00     0.111 A 
ENDBRANCH  34  36
ENDBRANCH  28  30
ENDBRANCH   6  28
TORSDOF 7
ENDMDL
MODEL 5
REMARK VINA RESULT:   -11.844      1.411      2.026
REMARK INTER + INTRA:         -15.362
REMARK INTER:                 -13.932
REMARK INTRA:                  -1.430
REMARK CONF_INDEPENDENT:        2.088
REMARK UNBOUND:                -1.430
REMARK SMILES Cc1cn(-c2cc(NC(=O)c3ccc(C)c(Nc4nccc(-c5cccnc5)n4)c3)cc(C(F)(F)F)c2)cn1
REMARK SMILES IDX 11 1 12 2 13 3 14 4 15 5 16 6 30 7 9 8 10 9 8 10 7 12 6 13
REMARK SMILES IDX 31 14 5 15 32 16 37 17 4 18 3 19 38 20 2 21 39 22 1 23 33 24
REMARK SMILES IDX 34 25 35 26 36 27 17 28 18 30 19 31 29 32 20 33 22 34 21 35
REMARK SMILES IDX 23 36 24 37 28 38 25 39 27 40 26 41
REMARK H PARENT 8 11 17 29
ROOT
ATOM      1  C   UNL     1      27.862   1.968  52.944  1.00  0.00     0.042 A 
ATOM      2  C   UNL     1      27.469   0.647  53.207  1.00  0.00     0.014 A 
ATOM      3  C   UNL     1      28.309  -0.240  53.882  1.00  0.00     0.006 A 
ATOM      4  C   UNL     1      29.596   0.123  54.244  1.00  0.00    -0.027 A 
ATOM      5  C   UNL     1      30.503  -0.858  54.973  1.00  0.00     0.046 C 
ATOM      6  C   UNL     1      30.030   1.400  53.894  1.00  0.00     0.045 A 
ATOM      7  C   UNL     1      29.163   2.285  53.239  1.00  0.00     0.040 A 
ENDROOT
BRANCH   1   8
ATOM      8  C   UNL     1      27.094   2.931  52.130  1.00  0.00     0.255 C 
ATOM      9  O   UNL     1      27.320   2.904  50.945  1.00  0.00    -0.269 OA
ATOM     10  N   UNL     1      26.068   3.539  52.745  1.00  0.00    -0.322 N 
ATOM     11  H   UNL     1      25.939   3.340  53.747  1.00  0.00     0.170 HD
BRANCH  10  12
ATOM     12  C   UNL     1      25.165   4.414  52.154  1.00  0.00     0.044 A 
ATOM     13  C   UNL     1      24.398   5.308  52.940  1.00  0.00     0.052 A 
ATOM     14  C   UNL     1      24.904   4.347  50.768  1.00  0.00     0.039 A 
ATOM     15  C   UNL     1      23.494   6.198  52.353  1.00  0.00     0.049 A 
ATOM     16  C   UNL     1      24.000   5.270  50.169  1.00  0.00     0.060 A 
ATOM     17  C   UNL     1      23.286   6.156  50.979  1.00  0.00     0.039 A 
BRANCH  15  18
ATOM     18  N   UNL     1      22.760   7.117  53.119  1.00  0.00    -0.306 N 
ATOM     19  C   UNL     1      21.688   6.882  53.978  1.00  0.00     0.116 A 
ATOM     20  C   UNL     1      22.886   8.449  53.110  1.00  0.00     0.204 A 
ATOM     21  C   UNL     1      21.242   8.073  54.432  1.00  0.00     0.056 A 
ATOM     22  N   UNL     1      22.025   9.039  53.903  1.00  0.00    -0.242 NA
ATOM     23  C   UNL     1      20.113   8.335  55.400  1.00  0.00     0.068 C 
ENDBRANCH  15  18
BRANCH  16  24
ATOM     24  C   UNL     1      23.788   5.217  48.691  1.00  0.00     0.416 C 
ATOM     25  F   UNL     1      22.841   4.349  48.282  1.00  0.00    -0.166 F 
ATOM     26  F   UNL     1      23.318   6.372  48.234  1.00  0.00    -0.166 F 
ATOM     27  F   UNL     1      24.891   4.811  48.029  1.00  0.00    -0.166 F 
ENDBRANCH  16  24
ENDBRANCH  10  12
ENDBRANCH   1   8
BRANCH   6  28
ATOM     28  N   UNL     1      31.262   1.846  54.390  1.00  0.00    -0.324 N 
ATOM     29  H   UNL     1      31.295   2.525  55.163  1.00  0.00     0.170 HD
BRANCH  28  30
ATOM     30  C   UNL     1      32.444   1.361  53.827  1.00  0.00     0.227 A 
ATOM     31  N   UNL     1      33.698   1.599  54.192  1.00  0.00    -0.221 NA
ATOM     32  N   UNL     1      32.110   0.624  52.737  1.00  0.00    -0.213 NA
ATOM     33  C   UNL     1      34.664   1.034  53.442  1.00  0.00     0.117 A 
ATOM     34  C   UNL     1      33.105   0.109  52.005  1.00  0.00     0.077 A 
ATOM     35  C   UNL     1      34.396   0.308  52.345  1.00  0.00     0.049 A 
BRANCH  34  36
ATOM     36  C   UNL     1      32.686  -0.718  50.844  1.00  0.00     0.019 A 
ATOM     37  C   UNL     1      31.336  -0.846  50.480  1.00  0.00     0.013 A 
ATOM     38  C   UNL     1      33.643  -1.414  50.079  1.00  0.00     0.121 A 
ATOM     39  C   UNL     1      31.001  -1.653  49.400  1.00  0.00     0.021 A 
ATOM     40  N   UNL     1      33.326  -2.200  49.042  1.00  0.00    -0.264 NA
ATOM     41  C   UNL     1      32.030  -2.284  48.701  1.00  0.00     0.111 A 
ENDBRANCH  34  36
ENDBRANCH  28  30
ENDBRANCH   6  28
TORSDOF 7
ENDMDL
MODEL 6
REMARK VINA RESULT:   -11.568      4.103     11.208
REMARK INTER + INTRA:         -14.821
REMARK INTER:                 -13.656
REMARK INTRA:                  -1.165
REMARK CONF_INDEPENDENT:        2.088
REMARK UNBOUND:                -1.165
REMARK SMILES Cc1cn(-c2cc(NC(=O)c3ccc(C)c(Nc4nccc(-c5cccnc5)n4)c3)cc(C(F)(F)F)c2)cn1
REMARK SMILES IDX 11 1 12 2 13 3 14 4 15 5 16 6 30 7 9 8 10 9 8 10 7 12 6 13
REMARK SMILES IDX 31 14 5 15 32 16 37 17 4 18 3 19 38 20 2 21 39 22 1 23 33 24
REMARK SMILES IDX 34 25 35 26 36 27 17 28 18 30 19 31 29 32 20 33 22 34 21 35
REMARK SMILES IDX 23 36 24 37 28 38 25 39 27 40 26 41
REMARK H PARENT 8 11 17 29
ROOT
ATOM      1  C   UNL     1      25.857   3.858  52.017  1.00  0.00     0.042 A 
ATOM      2  C   UNL     1      25.275   4.379  50.852  1.00  0.00     0.014 A 
ATOM      3  C   UNL     1      24.154   5.208  50.907  1.00  0.00     0.006 A 
ATOM      4  C   UNL     1      23.522   5.482  52.110  1.00  0.00    -0.027 A 
ATOM      5  C   UNL     1      22.295   6.382  52.154  1.00  0.00     0.046 C 
ATOM      6  C   UNL     1      24.033   4.883  53.260  1.00  0.00     0.045 A 
ATOM      7  C   UNL     1      25.174   4.074  53.186  1.00  0.00     0.040 A 
ENDROOT
BRANCH   1   8
ATOM      8  C   UNL     1      26.959   2.876  52.044  1.00  0.00     0.255 C 
ATOM      9  O   UNL     1      27.651   2.847  51.055  1.00  0.00    -0.269 OA
ATOM     10  N   UNL     1      27.225   2.316  53.233  1.00  0.00    -0.322 N 
ATOM     11  H   UNL     1      26.601   2.562  54.015  1.00  0.00     0.170 HD
BRANCH  10  12
ATOM     12  C   UNL     1      28.264   1.435  53.507  1.00  0.00     0.044 A 
ATOM     13  C   UNL     1      29.569   1.673  53.009  1.00  0.00     0.052 A 
ATOM     14  C   UNL     1      28.016   0.222  54.185  1.00  0.00     0.039 A 
ATOM     15  C   UNL     1      30.622   0.798  53.287  1.00  0.00     0.049 A 
ATOM     16  C   UNL     1      29.095  -0.657  54.487  1.00  0.00     0.060 A 
ATOM     17  C   UNL     1      30.373  -0.369  54.002  1.00  0.00     0.039 A 
BRANCH  15  18
ATOM     18  N   UNL     1      31.927   1.046  52.835  1.00  0.00    -0.306 N 
ATOM     19  C   UNL     1      32.560   0.574  51.686  1.00  0.00     0.116 A 
ATOM     20  C   UNL     1      32.881   1.730  53.477  1.00  0.00     0.204 A 
ATOM     21  C   UNL     1      33.841   1.002  51.705  1.00  0.00     0.056 A 
ATOM     22  N   UNL     1      34.013   1.751  52.816  1.00  0.00    -0.242 NA
ATOM     23  C   UNL     1      34.915   0.764  50.670  1.00  0.00     0.068 C 
ENDBRANCH  15  18
BRANCH  16  24
ATOM     24  C   UNL     1      28.814  -1.906  55.258  1.00  0.00     0.416 C 
ATOM     25  F   UNL     1      27.959  -2.762  54.665  1.00  0.00    -0.166 F 
ATOM     26  F   UNL     1      29.908  -2.649  55.378  1.00  0.00    -0.166 F 
ATOM     27  F   UNL     1      28.230  -1.653  56.448  1.00  0.00    -0.166 F 
ENDBRANCH  16  24
ENDBRANCH  10  12
ENDBRANCH   1   8
BRANCH   6  28
ATOM     28  N   UNL     1      23.514   5.272  54.501  1.00  0.00    -0.324 N 
ATOM     29  H   UNL     1      22.845   4.666  54.997  1.00  0.00     0.170 HD
BRANCH  28  30
ATOM     30  C   UNL     1      23.911   6.488  55.061  1.00  0.00     0.227 A 
ATOM     31  N   UNL     1      23.851   7.705  54.536  1.00  0.00    -0.221 NA
ATOM     32  N   UNL     1      24.473   6.222  56.268  1.00  0.00    -0.213 NA
ATOM     33  C   UNL     1      24.348   8.711  55.281  1.00  0.00     0.117 A 
ATOM     34  C   UNL     1      24.982   7.250  56.957  1.00  0.00     0.077 A 
ATOM     35  C   UNL     1      24.929   8.509  56.473  1.00  0.00     0.049 A 
BRANCH  34  36
ATOM     36  C   UNL     1      25.554   6.911  58.287  1.00  0.00     0.019 A 
ATOM     37  C   UNL     1      24.734   6.655  59.397  1.00  0.00     0.013 A 
ATOM     38  C   UNL     1      26.949   6.854  58.471  1.00  0.00     0.121 A 
ATOM     39  C   UNL     1      25.324   6.368  60.621  1.00  0.00     0.021 A 
ATOM     40  N   UNL     1      27.525   6.586  59.650  1.00  0.00    -0.264 NA
ATOM     41  C   UNL     1      26.716   6.319  60.689  1.00  0.00     0.111 A 
ENDBRANCH  34  36
ENDBRANCH  28  30
ENDBRANCH   6  28
TORSDOF 7
ENDMDL
MODEL 7
REMARK VINA RESULT:   -11.563      3.722     11.698
REMARK INTER + INTRA:         -14.790
REMARK INTER:                 -13.651
REMARK INTRA:                  -1.139
REMARK CONF_INDEPENDENT:        2.088
REMARK UNBOUND:                -1.139
REMARK SMILES Cc1cn(-c2cc(NC(=O)c3ccc(C)c(Nc4nccc(-c5cccnc5)n4)c3)cc(C(F)(F)F)c2)cn1
REMARK SMILES IDX 11 1 12 2 13 3 14 4 15 5 16 6 30 7 9 8 10 9 8 10 7 12 6 13
REMARK SMILES IDX 31 14 5 15 32 16 37 17 4 18 3 19 38 20 2 21 39 22 1 23 33 24
REMARK SMILES IDX 34 25 35 26 36 27 17 28 18 30 19 31 29 32 20 33 22 34 21 35
REMARK SMILES IDX 23 36 24 37 28 38 25 39 27 40 26 41
REMARK H PARENT 8 11 17 29
ROOT
ATOM      1  C   UNL     1      25.910   3.776  51.794  1.00  0.00     0.042 A 
ATOM      2  C   UNL     1      25.271   4.170  50.609  1.00  0.00     0.014 A 
ATOM      3  C   UNL     1      24.136   4.982  50.630  1.00  0.00     0.006 A 
ATOM      4  C   UNL     1      23.547   5.362  51.826  1.00  0.00    -0.027 A 
ATOM      5  C   UNL     1      22.305   6.242  51.834  1.00  0.00     0.046 C 
ATOM      6  C   UNL     1      24.118   4.888  53.006  1.00  0.00     0.045 A 
ATOM      7  C   UNL     1      25.271   4.095  52.964  1.00  0.00     0.040 A 
ENDROOT
BRANCH   1   8
ATOM      8  C   UNL     1      27.032   2.820  51.869  1.00  0.00     0.255 C 
ATOM      9  O   UNL     1      27.777   2.819  50.919  1.00  0.00    -0.269 OA
ATOM     10  N   UNL     1      27.246   2.252  53.065  1.00  0.00    -0.322 N 
ATOM     11  H   UNL     1      26.576   2.473  53.815  1.00  0.00     0.170 HD
BRANCH  10  12
ATOM     12  C   UNL     1      28.290   1.392  53.385  1.00  0.00     0.044 A 
ATOM     13  C   UNL     1      29.605   1.639  52.920  1.00  0.00     0.052 A 
ATOM     14  C   UNL     1      28.040   0.188  54.079  1.00  0.00     0.039 A 
ATOM     15  C   UNL     1      30.663   0.786  53.245  1.00  0.00     0.049 A 
ATOM     16  C   UNL     1      29.123  -0.670  54.428  1.00  0.00     0.060 A 
ATOM     17  C   UNL     1      30.410  -0.371  53.974  1.00  0.00     0.039 A 
BRANCH  15  18
ATOM     18  N   UNL     1      31.976   1.045  52.824  1.00  0.00    -0.306 N 
ATOM     19  C   UNL     1      32.636   0.591  51.684  1.00  0.00     0.116 A 
ATOM     20  C   UNL     1      32.913   1.723  53.497  1.00  0.00     0.204 A 
ATOM     21  C   UNL     1      33.915   1.023  51.736  1.00  0.00     0.056 A 
ATOM     22  N   UNL     1      34.059   1.757  52.862  1.00  0.00    -0.242 NA
ATOM     23  C   UNL     1      35.012   0.804  50.723  1.00  0.00     0.068 C 
ENDBRANCH  15  18
BRANCH  16  24
ATOM     24  C   UNL     1      28.838  -1.907  55.215  1.00  0.00     0.416 C 
ATOM     25  F   UNL     1      27.973  -2.764  54.637  1.00  0.00    -0.166 F 
ATOM     26  F   UNL     1      29.928  -2.656  55.337  1.00  0.00    -0.166 F 
ATOM     27  F   UNL     1      28.262  -1.637  56.405  1.00  0.00    -0.166 F 
ENDBRANCH  16  24
ENDBRANCH  10  12
ENDBRANCH   1   8
BRANCH   6  28
ATOM     28  N   UNL     1      23.641   5.389  54.225  1.00  0.00    -0.324 N 
ATOM     29  H   UNL     1      22.657   5.250  54.494  1.00  0.00     0.170 HD
BRANCH  28  30
ATOM     30  C   UNL     1      24.512   6.080  55.070  1.00  0.00     0.227 A 
ATOM     31  N   UNL     1      25.818   6.272  54.943  1.00  0.00    -0.221 NA
ATOM     32  N   UNL     1      23.798   6.488  56.151  1.00  0.00    -0.213 NA
ATOM     33  C   UNL     1      26.431   6.944  55.936  1.00  0.00     0.117 A 
ATOM     34  C   UNL     1      24.456   7.124  57.127  1.00  0.00     0.077 A 
ATOM     35  C   UNL     1      25.783   7.359  57.036  1.00  0.00     0.049 A 
BRANCH  34  36
ATOM     36  C   UNL     1      23.625   7.581  58.271  1.00  0.00     0.019 A 
ATOM     37  C   UNL     1      24.118   8.487  59.224  1.00  0.00     0.013 A 
ATOM     38  C   UNL     1      22.312   7.099  58.438  1.00  0.00     0.121 A 
ATOM     39  C   UNL     1      23.304   8.859  60.286  1.00  0.00     0.021 A 
ATOM     40  N   UNL     1      21.525   7.449  59.464  1.00  0.00    -0.264 NA
ATOM     41  C   UNL     1      22.013   8.336  60.346  1.00  0.00     0.111 A 
ENDBRANCH  34  36
ENDBRANCH  28  30
ENDBRANCH   6  28
TORSDOF 7
ENDMDL
MODEL 8
REMARK VINA RESULT:   -11.101      1.779      2.651
REMARK INTER + INTRA:         -14.388
REMARK INTER:                 -13.189
REMARK INTRA:                  -1.199
REMARK CONF_INDEPENDENT:        2.088
REMARK UNBOUND:                -1.199
REMARK SMILES Cc1cn(-c2cc(NC(=O)c3ccc(C)c(Nc4nccc(-c5cccnc5)n4)c3)cc(C(F)(F)F)c2)cn1
REMARK SMILES IDX 11 1 12 2 13 3 14 4 15 5 16 6 30 7 9 8 10 9 8 10 7 12 6 13
REMARK SMILES IDX 31 14 5 15 32 16 37 17 4 18 3 19 38 20 2 21 39 22 1 23 33 24
REMARK SMILES IDX 34 25 35 26 36 27 17 28 18 30 19 31 29 32 20 33 22 34 21 35
REMARK SMILES IDX 23 36 24 37 28 38 25 39 27 40 26 41
REMARK H PARENT 8 11 17 29
ROOT
ATOM      1  C   UNL     1      27.008   2.442  52.522  1.00  0.00     0.042 A 
ATOM      2  C   UNL     1      27.111   1.359  51.636  1.00  0.00     0.014 A 
ATOM      3  C   UNL     1      28.037   0.336  51.843  1.00  0.00     0.006 A 
ATOM      4  C   UNL     1      28.948   0.392  52.885  1.00  0.00    -0.027 A 
ATOM      5  C   UNL     1      29.958  -0.728  53.094  1.00  0.00     0.046 C 
ATOM      6  C   UNL     1      28.920   1.516  53.709  1.00  0.00     0.045 A 
ATOM      7  C   UNL     1      27.966   2.520  53.500  1.00  0.00     0.040 A 
ENDROOT
BRANCH   1   8
ATOM      8  C   UNL     1      26.150   3.625  52.313  1.00  0.00     0.255 C 
ATOM      9  O   UNL     1      26.013   3.969  51.165  1.00  0.00    -0.269 OA
ATOM     10  N   UNL     1      25.427   4.026  53.370  1.00  0.00    -0.322 N 
ATOM     11  H   UNL     1      25.577   3.523  54.256  1.00  0.00     0.170 HD
BRANCH  10  12
ATOM     12  C   UNL     1      24.497   5.057  53.378  1.00  0.00     0.044 A 
ATOM     13  C   UNL     1      23.784   5.385  54.558  1.00  0.00     0.052 A 
ATOM     14  C   UNL     1      24.153   5.723  52.181  1.00  0.00     0.039 A 
ATOM     15  C   UNL     1      22.853   6.427  54.579  1.00  0.00     0.049 A 
ATOM     16  C   UNL     1      23.220   6.799  52.209  1.00  0.00     0.060 A 
ATOM     17  C   UNL     1      22.562   7.109  53.402  1.00  0.00     0.039 A 
BRANCH  15  18
ATOM     18  N   UNL     1      22.174   6.786  55.752  1.00  0.00    -0.306 N 
ATOM     19  C   UNL     1      22.691   7.037  57.022  1.00  0.00     0.116 A 
ATOM     20  C   UNL     1      20.848   6.874  55.915  1.00  0.00     0.204 A 
ATOM     21  C   UNL     1      21.657   7.263  57.862  1.00  0.00     0.056 A 
ATOM     22  N   UNL     1      20.514   7.189  57.143  1.00  0.00    -0.242 NA
ATOM     23  C   UNL     1      21.711   7.597  59.333  1.00  0.00     0.068 C 
ENDBRANCH  15  18
BRANCH  16  24
ATOM     24  C   UNL     1      22.919   7.526  50.938  1.00  0.00     0.416 C 
ATOM     25  F   UNL     1      24.001   7.889  50.220  1.00  0.00    -0.166 F 
ATOM     26  F   UNL     1      22.272   6.743  50.083  1.00  0.00    -0.166 F 
ATOM     27  F   UNL     1      22.280   8.694  51.155  1.00  0.00    -0.166 F 
ENDBRANCH  16  24
ENDBRANCH  10  12
ENDBRANCH   1   8
BRANCH   6  28
ATOM     28  N   UNL     1      29.718   1.519  54.860  1.00  0.00    -0.324 N 
ATOM     29  H   UNL     1      29.350   1.149  55.748  1.00  0.00     0.170 HD
BRANCH  28  30
ATOM     30  C   UNL     1      31.016   2.029  54.795  1.00  0.00     0.227 A 
ATOM     31  N   UNL     1      31.550   3.037  55.473  1.00  0.00    -0.221 NA
ATOM     32  N   UNL     1      31.676   1.352  53.820  1.00  0.00    -0.213 NA
ATOM     33  C   UNL     1      32.826   3.354  55.183  1.00  0.00     0.117 A 
ATOM     34  C   UNL     1      32.932   1.724  53.545  1.00  0.00     0.077 A 
ATOM     35  C   UNL     1      33.525   2.732  54.220  1.00  0.00     0.049 A 
BRANCH  34  36
ATOM     36  C   UNL     1      33.622   0.929  52.496  1.00  0.00     0.019 A 
ATOM     37  C   UNL     1      32.915   0.340  51.436  1.00  0.00     0.013 A 
ATOM     38  C   UNL     1      35.016   0.733  52.548  1.00  0.00     0.121 A 
ATOM     39  C   UNL     1      33.609  -0.413  50.497  1.00  0.00     0.021 A 
ATOM     40  N   UNL     1      35.689   0.002  51.651  1.00  0.00    -0.264 NA
ATOM     41  C   UNL     1      34.992  -0.529  50.633  1.00  0.00     0.111 A 
ENDBRANCH  34  36
ENDBRANCH  28  30
ENDBRANCH   6  28
TORSDOF 7
ENDMDL
MODEL 9
REMARK VINA RESULT:   -11.069      4.691      8.322
REMARK INTER + INTRA:         -14.206
REMARK INTER:                 -13.158
REMARK INTRA:                  -1.049
REMARK CONF_INDEPENDENT:        2.088
REMARK UNBOUND:                -1.049
REMARK SMILES Cc1cn(-c2cc(NC(=O)c3ccc(C)c(Nc4nccc(-c5cccnc5)n4)c3)cc(C(F)(F)F)c2)cn1
REMARK SMILES IDX 11 1 12 2 13 3 14 4 15 5 16 6 30 7 9 8 10 9 8 10 7 12 6 13
REMARK SMILES IDX 31 14 5 15 32 16 37 17 4 18 3 19 38 20 2 21 39 22 1 23 33 24
REMARK SMILES IDX 34 25 35 26 36 27 17 28 18 30 19 31 29 32 20 33 22 34 21 35
REMARK SMILES IDX 23 36 24 37 28 38 25 39 27 40 26 41
REMARK H PARENT 8 11 17 29
ROOT
ATOM      1  C   UNL     1      34.343  -0.759  50.819  1.00  0.00     0.042 A 
ATOM      2  C   UNL     1      34.440  -2.030  50.232  1.00  0.00     0.014 A 
ATOM      3  C   UNL     1      35.447  -2.332  49.315  1.00  0.00     0.006 A 
ATOM      4  C   UNL     1      36.341  -1.365  48.884  1.00  0.00    -0.027 A 
ATOM      5  C   UNL     1      37.430  -1.708  47.877  1.00  0.00     0.046 C 
ATOM      6  C   UNL     1      36.186  -0.073  49.385  1.00  0.00     0.045 A 
ATOM      7  C   UNL     1      35.184   0.204  50.324  1.00  0.00     0.040 A 
ENDROOT
BRANCH   1   8
ATOM      8  C   UNL     1      33.242  -0.316  51.696  1.00  0.00     0.255 C 
ATOM      9  O   UNL     1      33.409   0.747  52.242  1.00  0.00    -0.269 OA
ATOM     10  N   UNL     1      32.093  -1.002  51.595  1.00  0.00    -0.322 N 
ATOM     11  H   UNL     1      32.090  -1.819  50.969  1.00  0.00     0.170 HD
BRANCH  10  12
ATOM     12  C   UNL     1      30.908  -0.711  52.260  1.00  0.00     0.044 A 
ATOM     13  C   UNL     1      30.103   0.385  51.863  1.00  0.00     0.052 A 
ATOM     14  C   UNL     1      30.542  -1.427  53.420  1.00  0.00     0.039 A 
ATOM     15  C   UNL     1      28.904   0.679  52.519  1.00  0.00     0.049 A 
ATOM     16  C   UNL     1      29.309  -1.140  54.073  1.00  0.00     0.060 A 
ATOM     17  C   UNL     1      28.529  -0.069  53.631  1.00  0.00     0.039 A 
BRANCH  15  18
ATOM     18  N   UNL     1      28.078   1.736  52.108  1.00  0.00    -0.306 N 
ATOM     19  C   UNL     1      27.079   2.395  52.821  1.00  0.00     0.116 A 
ATOM     20  C   UNL     1      28.020   2.279  50.886  1.00  0.00     0.204 A 
ATOM     21  C   UNL     1      26.489   3.287  51.996  1.00  0.00     0.056 A 
ATOM     22  N   UNL     1      27.114   3.222  50.799  1.00  0.00    -0.242 NA
ATOM     23  C   UNL     1      25.369   4.248  52.314  1.00  0.00     0.068 C 
ENDBRANCH  15  18
BRANCH  16  24
ATOM     24  C   UNL     1      28.917  -1.954  55.264  1.00  0.00     0.416 C 
ATOM     25  F   UNL     1      28.056  -2.958  55.008  1.00  0.00    -0.166 F 
ATOM     26  F   UNL     1      29.961  -2.606  55.761  1.00  0.00    -0.166 F 
ATOM     27  F   UNL     1      28.275  -1.221  56.197  1.00  0.00    -0.166 F 
ENDBRANCH  16  24
ENDBRANCH  10  12
ENDBRANCH   1   8
BRANCH   6  28
ATOM     28  N   UNL     1      37.171   0.878  49.091  1.00  0.00    -0.324 N 
ATOM     29  H   UNL     1      36.906   1.806  48.732  1.00  0.00     0.170 HD
BRANCH  28  30
ATOM     30  C   UNL     1      38.516   0.558  49.290  1.00  0.00     0.227 A 
ATOM     31  N   UNL     1      39.078  -0.078  50.310  1.00  0.00    -0.221 NA
ATOM     32  N   UNL     1      39.223   1.091  48.261  1.00  0.00    -0.213 NA
ATOM     33  C   UNL     1      40.417  -0.218  50.273  1.00  0.00     0.117 A 
ATOM     34  C   UNL     1      40.553   0.954  48.283  1.00  0.00     0.077 A 
ATOM     35  C   UNL     1      41.171   0.300  49.290  1.00  0.00     0.049 A 
BRANCH  34  36
ATOM     36  C   UNL     1      41.278   1.524  47.117  1.00  0.00     0.019 A 
ATOM     37  C   UNL     1      40.637   2.364  46.193  1.00  0.00     0.013 A 
ATOM     38  C   UNL     1      42.636   1.220  46.900  1.00  0.00     0.121 A 
ATOM     39  C   UNL     1      41.357   2.848  45.108  1.00  0.00     0.021 A 
ATOM     40  N   UNL     1      43.333   1.676  45.852  1.00  0.00    -0.264 NA
ATOM     41  C   UNL     1      42.703   2.498  44.997  1.00  0.00     0.111 A 
ENDBRANCH  34  36
ENDBRANCH  28  30
ENDBRANCH   6  28
TORSDOF 7
ENDMDL
MODEL 10
REMARK VINA RESULT:   -10.973      3.616     12.092
REMARK INTER + INTRA:         -14.259
REMARK INTER:                 -13.062
REMARK INTRA:                  -1.198
REMARK CONF_INDEPENDENT:        2.088
REMARK UNBOUND:                -1.198
REMARK SMILES Cc1cn(-c2cc(NC(=O)c3ccc(C)c(Nc4nccc(-c5cccnc5)n4)c3)cc(C(F)(F)F)c2)cn1
REMARK SMILES IDX 11 1 12 2 13 3 14 4 15 5 16 6 30 7 9 8 10 9 8 10 7 12 6 13
REMARK SMILES IDX 31 14 5 15 32 16 37 17 4 18 3 19 38 20 2 21 39 22 1 23 33 24
REMARK SMILES IDX 34 25 35 26 36 27 17 28 18 30 19 31 29 32 20 33 22 34 21 35
REMARK SMILES IDX 23 36 24 37 28 38 25 39 27 40 26 41
REMARK H PARENT 8 11 17 29
ROOT
ATOM      1  C   UNL     1      26.041   3.537  51.598  1.00  0.00     0.042 A 
ATOM      2  C   UNL     1      25.463   3.915  50.376  1.00  0.00     0.014 A 
ATOM      3  C   UNL     1      24.238   4.581  50.327  1.00  0.00     0.006 A 
ATOM      4  C   UNL     1      23.504   4.822  51.477  1.00  0.00    -0.027 A 
ATOM      5  C   UNL     1      22.165   5.542  51.407  1.00  0.00     0.046 C 
ATOM      6  C   UNL     1      24.024   4.357  52.684  1.00  0.00     0.045 A 
ATOM      7  C   UNL     1      25.267   3.712  52.715  1.00  0.00     0.040 A 
ENDROOT
BRANCH   1   8
ATOM      8  C   UNL     1      27.264   2.722  51.736  1.00  0.00     0.255 C 
ATOM      9  O   UNL     1      28.183   3.042  51.023  1.00  0.00    -0.269 OA
ATOM     10  N   UNL     1      27.308   1.898  52.793  1.00  0.00    -0.322 N 
ATOM     11  H   UNL     1      26.466   1.848  53.384  1.00  0.00     0.170 HD
BRANCH  10  12
ATOM     12  C   UNL     1      28.387   1.104  53.164  1.00  0.00     0.044 A 
ATOM     13  C   UNL     1      29.692   1.382  52.688  1.00  0.00     0.052 A 
ATOM     14  C   UNL     1      28.187  -0.068  53.926  1.00  0.00     0.039 A 
ATOM     15  C   UNL     1      30.785   0.596  53.063  1.00  0.00     0.049 A 
ATOM     16  C   UNL     1      29.305  -0.855  54.326  1.00  0.00     0.060 A 
ATOM     17  C   UNL     1      30.579  -0.527  53.858  1.00  0.00     0.039 A 
BRANCH  15  18
ATOM     18  N   UNL     1      32.087   0.887  52.631  1.00  0.00    -0.306 N 
ATOM     19  C   UNL     1      32.787   0.365  51.545  1.00  0.00     0.116 A 
ATOM     20  C   UNL     1      32.976   1.679  53.243  1.00  0.00     0.204 A 
ATOM     21  C   UNL     1      34.039   0.872  51.566  1.00  0.00     0.056 A 
ATOM     22  N   UNL     1      34.127   1.717  52.617  1.00  0.00    -0.242 NA
ATOM     23  C   UNL     1      35.160   0.619  50.587  1.00  0.00     0.068 C 
ENDBRANCH  15  18
BRANCH  16  24
ATOM     24  C   UNL     1      29.071  -2.056  55.183  1.00  0.00     0.416 C 
ATOM     25  F   UNL     1      28.282  -3.002  54.636  1.00  0.00    -0.166 F 
ATOM     26  F   UNL     1      30.200  -2.725  55.386  1.00  0.00    -0.166 F 
ATOM     27  F   UNL     1      28.440  -1.749  56.336  1.00  0.00    -0.166 F 
ENDBRANCH  16  24
ENDBRANCH  10  12
ENDBRANCH   1   8
BRANCH   6  28
ATOM     28  N   UNL     1      23.383   4.729  53.873  1.00  0.00    -0.324 N 
ATOM     29  H   UNL     1      22.771   4.062  54.364  1.00  0.00     0.170 HD
BRANCH  28  30
ATOM     30  C   UNL     1      23.582   6.011  54.387  1.00  0.00     0.227 A 
ATOM     31  N   UNL     1      24.571   6.458  55.151  1.00  0.00    -0.221 NA
ATOM     32  N   UNL     1      22.509   6.767  54.036  1.00  0.00    -0.213 NA
ATOM     33  C   UNL     1      24.496   7.743  55.548  1.00  0.00     0.117 A 
ATOM     34  C   UNL     1      22.464   8.028  54.481  1.00  0.00     0.077 A 
ATOM     35  C   UNL     1      23.455   8.534  55.246  1.00  0.00     0.049 A 
BRANCH  34  36
ATOM     36  C   UNL     1      21.288   8.823  54.040  1.00  0.00     0.019 A 
ATOM     37  C   UNL     1      19.981   8.470  54.410  1.00  0.00     0.013 A 
ATOM     38  C   UNL     1      21.457   9.954  53.217  1.00  0.00     0.121 A 
ATOM     39  C   UNL     1      18.918   9.236  53.947  1.00  0.00     0.021 A 
ATOM     40  N   UNL     1      20.437  10.691  52.761  1.00  0.00    -0.264 NA
ATOM     41  C   UNL     1      19.199  10.346  53.152  1.00  0.00     0.111 A 
ENDBRANCH  34  36
ENDBRANCH  28  30
ENDBRANCH   6  28
TORSDOF 7
ENDMDL
MODEL 11
REMARK VINA RESULT:   -10.931      3.571     12.084
REMARK INTER + INTRA:         -14.352
REMARK INTER:                 -13.019
REMARK INTRA:                  -1.333
REMARK CONF_INDEPENDENT:        2.088
REMARK UNBOUND:                -1.333
REMARK SMILES Cc1cn(-c2cc(NC(=O)c3ccc(C)c(Nc4nccc(-c5cccnc5)n4)c3)cc(C(F)(F)F)c2)cn1
REMARK SMILES IDX 11 1 12 2 13 3 14 4 15 5 16 6 30 7 9 8 10 9 8 10 7 12 6 13
REMARK SMILES IDX 31 14 5 15 32 16 37 17 4 18 3 19 38 20 2 21 39 22 1 23 33 24
REMARK SMILES IDX 34 25 35 26 36 27 17 28 18 30 19 31 29 32 20 33 22 34 21 35
REMARK SMILES IDX 23 36 24 37 28 38 25 39 27 40 26 41
REMARK H PARENT 8 11 17 29
ROOT
ATOM      1  C   UNL     1      25.601   3.740  51.879  1.00  0.00     0.042 A 
ATOM      2  C   UNL     1      24.835   3.886  50.713  1.00  0.00     0.014 A 
ATOM      3  C   UNL     1      23.497   4.279  50.766  1.00  0.00     0.006 A 
ATOM      4  C   UNL     1      22.850   4.461  51.978  1.00  0.00    -0.027 A 
ATOM      5  C   UNL     1      21.388   4.883  52.021  1.00  0.00     0.046 C 
ATOM      6  C   UNL     1      23.577   4.217  53.142  1.00  0.00     0.045 A 
ATOM      7  C   UNL     1      24.926   3.847  53.067  1.00  0.00     0.040 A 
ENDROOT
BRANCH   1   8
ATOM      8  C   UNL     1      26.977   3.209  51.923  1.00  0.00     0.255 C 
ATOM      9  O   UNL     1      27.556   3.180  50.865  1.00  0.00    -0.269 OA
ATOM     10  N   UNL     1      27.514   3.057  53.143  1.00  0.00    -0.322 N 
ATOM     11  H   UNL     1      26.906   3.258  53.950  1.00  0.00     0.170 HD
BRANCH  10  12
ATOM     12  C   UNL     1      28.815   2.653  53.418  1.00  0.00     0.044 A 
ATOM     13  C   UNL     1      29.451   1.663  52.629  1.00  0.00     0.052 A 
ATOM     14  C   UNL     1      29.489   3.133  54.562  1.00  0.00     0.039 A 
ATOM     15  C   UNL     1      30.762   1.257  52.891  1.00  0.00     0.049 A 
ATOM     16  C   UNL     1      30.833   2.735  54.815  1.00  0.00     0.060 A 
ATOM     17  C   UNL     1      31.433   1.778  53.993  1.00  0.00     0.039 A 
BRANCH  15  18
ATOM     18  N   UNL     1      31.416   0.309  52.091  1.00  0.00    -0.306 N 
ATOM     19  C   UNL     1      32.782   0.066  51.958  1.00  0.00     0.116 A 
ATOM     20  C   UNL     1      30.849  -0.516  51.202  1.00  0.00     0.204 A 
ATOM     21  C   UNL     1      32.952  -0.882  51.011  1.00  0.00     0.056 A 
ATOM     22  N   UNL     1      31.729  -1.256  50.573  1.00  0.00    -0.242 NA
ATOM     23  C   UNL     1      34.247  -1.491  50.528  1.00  0.00     0.068 C 
ENDBRANCH  15  18
BRANCH  16  24
ATOM     24  C   UNL     1      31.543   3.305  56.000  1.00  0.00     0.416 C 
ATOM     25  F   UNL     1      31.650   2.472  57.055  1.00  0.00    -0.166 F 
ATOM     26  F   UNL     1      32.816   3.556  55.718  1.00  0.00    -0.166 F 
ATOM     27  F   UNL     1      30.907   4.379  56.512  1.00  0.00    -0.166 F 
ENDBRANCH  16  24
ENDBRANCH  10  12
ENDBRANCH   1   8
BRANCH   6  28
ATOM     28  N   UNL     1      22.996   4.550  54.373  1.00  0.00    -0.324 N 
ATOM     29  H   UNL     1      22.430   3.858  54.884  1.00  0.00     0.170 HD
BRANCH  28  30
ATOM     30  C   UNL     1      23.191   5.828  54.901  1.00  0.00     0.227 A 
ATOM     31  N   UNL     1      24.104   6.238  55.772  1.00  0.00    -0.221 NA
ATOM     32  N   UNL     1      22.202   6.626  54.423  1.00  0.00    -0.213 NA
ATOM     33  C   UNL     1      24.041   7.528  56.153  1.00  0.00     0.117 A 
ATOM     34  C   UNL     1      22.162   7.892  54.855  1.00  0.00     0.077 A 
ATOM     35  C   UNL     1      23.079   8.362  55.728  1.00  0.00     0.049 A 
BRANCH  34  36
ATOM     36  C   UNL     1      21.083   8.734  54.276  1.00  0.00     0.019 A 
ATOM     37  C   UNL     1      19.730   8.374  54.386  1.00  0.00     0.013 A 
ATOM     38  C   UNL     1      21.394   9.920  53.582  1.00  0.00     0.121 A 
ATOM     39  C   UNL     1      18.766   9.186  53.803  1.00  0.00     0.021 A 
ATOM     40  N   UNL     1      20.470  10.703  53.011  1.00  0.00    -0.264 NA
ATOM     41  C   UNL     1      19.182  10.348  53.154  1.00  0.00     0.111 A 
ENDBRANCH  34  36
ENDBRANCH  28  30
ENDBRANCH   6  28
TORSDOF 7
ENDMDL
MODEL 12
REMARK VINA RESULT:   -10.911      4.540      7.517
REMARK INTER + INTRA:         -13.796
REMARK INTER:                 -12.999
REMARK INTRA:                  -0.797
REMARK CONF_INDEPENDENT:        2.088
REMARK UNBOUND:                -0.797
REMARK SMILES Cc1cn(-c2cc(NC(=O)c3ccc(C)c(Nc4nccc(-c5cccnc5)n4)c3)cc(C(F)(F)F)c2)cn1
REMARK SMILES IDX 11 1 12 2 13 3 14 4 15 5 16 6 30 7 9 8 10 9 8 10 7 12 6 13
REMARK SMILES IDX 31 14 5 15 32 16 37 17 4 18 3 19 38 20 2 21 39 22 1 23 33 24
REMARK SMILES IDX 34 25 35 26 36 27 17 28 18 30 19 31 29 32 20 33 22 34 21 35
REMARK SMILES IDX 23 36 24 37 28 38 25 39 27 40 26 41
REMARK H PARENT 8 11 17 29
ROOT
ATOM      1  C   UNL     1      23.011   5.917  52.925  1.00  0.00     0.042 A 
ATOM      2  C   UNL     1      22.800   5.767  51.546  1.00  0.00     0.014 A 
ATOM      3  C   UNL     1      23.441   4.766  50.816  1.00  0.00     0.006 A 
ATOM      4  C   UNL     1      24.377   3.933  51.409  1.00  0.00    -0.027 A 
ATOM      5  C   UNL     1      25.075   2.849  50.599  1.00  0.00     0.046 C 
ATOM      6  C   UNL     1      24.669   4.144  52.756  1.00  0.00     0.045 A 
ATOM      7  C   UNL     1      23.995   5.138  53.476  1.00  0.00     0.040 A 
ENDROOT
BRANCH   1   8
ATOM      8  C   UNL     1      22.476   7.021  53.745  1.00  0.00     0.255 C 
ATOM      9  O   UNL     1      23.303   7.712  54.288  1.00  0.00    -0.269 OA
ATOM     10  N   UNL     1      21.170   7.289  53.597  1.00  0.00    -0.322 N 
ATOM     11  H   UNL     1      20.632   6.665  52.979  1.00  0.00     0.170 HD
BRANCH  10  12
ATOM     12  C   UNL     1      20.476   8.329  54.203  1.00  0.00     0.044 A 
ATOM     13  C   UNL     1      19.450   9.019  53.510  1.00  0.00     0.052 A 
ATOM     14  C   UNL     1      20.859   8.802  55.477  1.00  0.00     0.039 A 
ATOM     15  C   UNL     1      18.740  10.060  54.114  1.00  0.00     0.049 A 
ATOM     16  C   UNL     1      20.120   9.848  56.099  1.00  0.00     0.060 A 
ATOM     17  C   UNL     1      19.096  10.481  55.392  1.00  0.00     0.039 A 
BRANCH  15  18
ATOM     18  N   UNL     1      17.695  10.722  53.453  1.00  0.00    -0.306 N 
ATOM     19  C   UNL     1      16.652  11.472  53.993  1.00  0.00     0.116 A 
ATOM     20  C   UNL     1      17.430  10.690  52.141  1.00  0.00     0.204 A 
ATOM     21  C   UNL     1      15.834  11.845  52.985  1.00  0.00     0.056 A 
ATOM     22  N   UNL     1      16.356  11.374  51.831  1.00  0.00    -0.242 NA
ATOM     23  C   UNL     1      14.582  12.684  53.067  1.00  0.00     0.068 C 
ENDBRANCH  15  18
BRANCH  16  24
ATOM     24  C   UNL     1      20.509  10.287  57.473  1.00  0.00     0.416 C 
ATOM     25  F   UNL     1      20.542   9.307  58.397  1.00  0.00    -0.166 F 
ATOM     26  F   UNL     1      21.762  10.729  57.496  1.00  0.00    -0.166 F 
ATOM     27  F   UNL     1      19.640  11.178  57.992  1.00  0.00    -0.166 F 
ENDBRANCH  16  24
ENDBRANCH  10  12
ENDBRANCH   1   8
BRANCH   6  28
ATOM     28  N   UNL     1      25.485   3.215  53.414  1.00  0.00    -0.324 N 
ATOM     29  H   UNL     1      25.155   2.749  54.271  1.00  0.00     0.170 HD
BRANCH  28  30
ATOM     30  C   UNL     1      26.751   2.928  52.900  1.00  0.00     0.227 A 
ATOM     31  N   UNL     1      27.454   3.597  51.995  1.00  0.00    -0.221 NA
ATOM     32  N   UNL     1      27.154   1.747  53.436  1.00  0.00    -0.213 NA
ATOM     33  C   UNL     1      28.642   3.071  51.641  1.00  0.00     0.117 A 
ATOM     34  C   UNL     1      28.327   1.248  53.029  1.00  0.00     0.077 A 
ATOM     35  C   UNL     1      29.088   1.901  52.124  1.00  0.00     0.049 A 
BRANCH  34  36
ATOM     36  C   UNL     1      28.740  -0.028  53.670  1.00  0.00     0.019 A 
ATOM     37  C   UNL     1      28.092  -0.518  54.816  1.00  0.00     0.013 A 
ATOM     38  C   UNL     1      29.812  -0.777  53.148  1.00  0.00     0.121 A 
ATOM     39  C   UNL     1      28.537  -1.703  55.387  1.00  0.00     0.021 A 
ATOM     40  N   UNL     1      30.251  -1.916  53.700  1.00  0.00    -0.264 NA
ATOM     41  C   UNL     1      29.597  -2.375  54.779  1.00  0.00     0.111 A 
ENDBRANCH  34  36
ENDBRANCH  28  30
ENDBRANCH   6  28
TORSDOF 7
ENDMDL
MODEL 13
REMARK VINA RESULT:   -10.890      1.911      2.984
REMARK INTER + INTRA:         -13.794
REMARK INTER:                 -12.978
REMARK INTRA:                  -0.816
REMARK CONF_INDEPENDENT:        2.088
REMARK UNBOUND:                -0.816
REMARK SMILES Cc1cn(-c2cc(NC(=O)c3ccc(C)c(Nc4nccc(-c5cccnc5)n4)c3)cc(C(F)(F)F)c2)cn1
REMARK SMILES IDX 11 1 12 2 13 3 14 4 15 5 16 6 30 7 9 8 10 9 8 10 7 12 6 13
REMARK SMILES IDX 31 14 5 15 32 16 37 17 4 18 3 19 38 20 2 21 39 22 1 23 33 24
REMARK SMILES IDX 34 25 35 26 36 27 17 28 18 30 19 31 29 32 20 33 22 34 21 35
REMARK SMILES IDX 23 36 24 37 28 38 25 39 27 40 26 41
REMARK H PARENT 8 11 17 29
ROOT
ATOM      1  C   UNL     1      26.839   2.339  52.410  1.00  0.00     0.042 A 
ATOM      2  C   UNL     1      27.149   1.015  52.065  1.00  0.00     0.014 A 
ATOM      3  C   UNL     1      28.048   0.258  52.818  1.00  0.00     0.006 A 
ATOM      4  C   UNL     1      28.734   0.812  53.887  1.00  0.00    -0.027 A 
ATOM      5  C   UNL     1      29.718  -0.023  54.695  1.00  0.00     0.046 C 
ATOM      6  C   UNL     1      28.508   2.158  54.172  1.00  0.00     0.045 A 
ATOM      7  C   UNL     1      27.582   2.893  53.420  1.00  0.00     0.040 A 
ENDROOT
BRANCH   1   8
ATOM      8  C   UNL     1      26.002   3.247  51.603  1.00  0.00     0.255 C 
ATOM      9  O   UNL     1      25.731   2.854  50.494  1.00  0.00    -0.269 OA
ATOM     10  N   UNL     1      25.434   4.269  52.260  1.00  0.00    -0.322 N 
ATOM     11  H   UNL     1      25.677   4.379  53.255  1.00  0.00     0.170 HD
BRANCH  10  12
ATOM     12  C   UNL     1      24.547   5.194  51.722  1.00  0.00     0.044 A 
ATOM     13  C   UNL     1      23.854   6.106  52.555  1.00  0.00     0.052 A 
ATOM     14  C   UNL     1      24.226   5.165  50.347  1.00  0.00     0.039 A 
ATOM     15  C   UNL     1      22.968   7.047  52.022  1.00  0.00     0.049 A 
ATOM     16  C   UNL     1      23.340   6.138  49.803  1.00  0.00     0.060 A 
ATOM     17  C   UNL     1      22.701   7.039  50.657  1.00  0.00     0.039 A 
BRANCH  15  18
ATOM     18  N   UNL     1      22.308   7.982  52.833  1.00  0.00    -0.306 N 
ATOM     19  C   UNL     1      22.749   9.232  53.265  1.00  0.00     0.116 A 
ATOM     20  C   UNL     1      21.130   7.821  53.447  1.00  0.00     0.204 A 
ATOM     21  C   UNL     1      21.817   9.743  54.099  1.00  0.00     0.056 A 
ATOM     22  N   UNL     1      20.797   8.860  54.174  1.00  0.00    -0.242 NA
ATOM     23  C   UNL     1      21.834  11.078  54.804  1.00  0.00     0.068 C 
ENDBRANCH  15  18
BRANCH  16  24
ATOM     24  C   UNL     1      23.065   6.121  48.334  1.00  0.00     0.416 C 
ATOM     25  F   UNL     1      24.160   6.130  47.549  1.00  0.00    -0.166 F 
ATOM     26  F   UNL     1      22.476   4.987  47.972  1.00  0.00    -0.166 F 
ATOM     27  F   UNL     1      22.380   7.210  47.929  1.00  0.00    -0.166 F 
ENDBRANCH  16  24
ENDBRANCH  10  12
ENDBRANCH   1   8
BRANCH   6  28
ATOM     28  N   UNL     1      29.062   2.694  55.341  1.00  0.00    -0.324 N 
ATOM     29  H   UNL     1      28.467   2.877  56.162  1.00  0.00     0.170 HD
BRANCH  28  30
ATOM     30  C   UNL     1      30.428   2.978  55.386  1.00  0.00     0.227 A 
ATOM     31  N   UNL     1      31.070   3.867  56.134  1.00  0.00    -0.221 NA
ATOM     32  N   UNL     1      31.038   2.219  54.440  1.00  0.00    -0.213 NA
ATOM     33  C   UNL     1      32.399   3.970  55.946  1.00  0.00     0.117 A 
ATOM     34  C   UNL     1      32.356   2.379  54.268  1.00  0.00     0.077 A 
ATOM     35  C   UNL     1      33.056   3.258  55.016  1.00  0.00     0.049 A 
BRANCH  34  36
ATOM     36  C   UNL     1      32.981   1.500  53.245  1.00  0.00     0.019 A 
ATOM     37  C   UNL     1      34.363   1.253  53.234  1.00  0.00     0.013 A 
ATOM     38  C   UNL     1      32.196   0.900  52.241  1.00  0.00     0.121 A 
ATOM     39  C   UNL     1      34.896   0.443  52.239  1.00  0.00     0.021 A 
ATOM     40  N   UNL     1      32.706   0.126  51.274  1.00  0.00    -0.264 NA
ATOM     41  C   UNL     1      34.027  -0.115  51.303  1.00  0.00     0.111 A 
ENDBRANCH  34  36
ENDBRANCH  28  30
ENDBRANCH   6  28
TORSDOF 7
ENDMDL
MODEL 14
REMARK VINA RESULT:   -10.886      8.389     15.246
REMARK INTER + INTRA:         -14.291
REMARK INTER:                 -12.975
REMARK INTRA:                  -1.317
REMARK CONF_INDEPENDENT:        2.088
REMARK UNBOUND:                -1.317
REMARK SMILES Cc1cn(-c2cc(NC(=O)c3ccc(C)c(Nc4nccc(-c5cccnc5)n4)c3)cc(C(F)(F)F)c2)cn1
REMARK SMILES IDX 11 1 12 2 13 3 14 4 15 5 16 6 30 7 9 8 10 9 8 10 7 12 6 13
REMARK SMILES IDX 31 14 5 15 32 16 37 17 4 18 3 19 38 20 2 21 39 22 1 23 33 24
REMARK SMILES IDX 34 25 35 26 36 27 17 28 18 30 19 31 29 32 20 33 22 34 21 35
REMARK SMILES IDX 23 36 24 37 28 38 25 39 27 40 26 41
REMARK H PARENT 8 11 17 29
ROOT
ATOM      1  C   UNL     1      35.971  -1.643  49.256  1.00  0.00     0.042 A 
ATOM      2  C   UNL     1      35.197  -2.808  49.142  1.00  0.00     0.014 A 
ATOM      3  C   UNL     1      33.824  -2.795  49.390  1.00  0.00     0.006 A 
ATOM      4  C   UNL     1      33.186  -1.650  49.839  1.00  0.00    -0.027 A 
ATOM      5  C   UNL     1      31.688  -1.653  50.113  1.00  0.00     0.046 C 
ATOM      6  C   UNL     1      33.968  -0.516  50.054  1.00  0.00     0.045 A 
ATOM      7  C   UNL     1      35.340  -0.543  49.775  1.00  0.00     0.040 A 
ENDROOT
BRANCH   1   8
ATOM      8  C   UNL     1      37.442  -1.593  49.137  1.00  0.00     0.255 C 
ATOM      9  O   UNL     1      38.023  -1.121  50.084  1.00  0.00    -0.269 OA
ATOM     10  N   UNL     1      37.978  -2.292  48.125  1.00  0.00    -0.322 N 
ATOM     11  H   UNL     1      37.324  -2.751  47.475  1.00  0.00     0.170 HD
BRANCH  10  12
ATOM     12  C   UNL     1      39.335  -2.453  47.873  1.00  0.00     0.044 A 
ATOM     13  C   UNL     1      39.902  -2.028  46.646  1.00  0.00     0.052 A 
ATOM     14  C   UNL     1      40.156  -3.153  48.784  1.00  0.00     0.039 A 
ATOM     15  C   UNL     1      41.267  -2.177  46.388  1.00  0.00     0.049 A 
ATOM     16  C   UNL     1      41.551  -3.284  48.529  1.00  0.00     0.060 A 
ATOM     17  C   UNL     1      42.074  -2.823  47.319  1.00  0.00     0.039 A 
BRANCH  15  18
ATOM     18  N   UNL     1      41.846  -1.721  45.194  1.00  0.00    -0.306 N 
ATOM     19  C   UNL     1      42.150  -0.416  44.810  1.00  0.00     0.116 A 
ATOM     20  C   UNL     1      42.148  -2.457  44.118  1.00  0.00     0.204 A 
ATOM     21  C   UNL     1      42.616  -0.446  43.542  1.00  0.00     0.056 A 
ATOM     22  N   UNL     1      42.637  -1.736  43.139  1.00  0.00    -0.242 NA
ATOM     23  C   UNL     1      43.092   0.712  42.700  1.00  0.00     0.068 C 
ENDBRANCH  15  18
BRANCH  16  24
ATOM     24  C   UNL     1      42.407  -3.977  49.538  1.00  0.00     0.416 C 
ATOM     25  F   UNL     1      42.185  -3.615  50.818  1.00  0.00    -0.166 F 
ATOM     26  F   UNL     1      42.147  -5.279  49.571  1.00  0.00    -0.166 F 
ATOM     27  F   UNL     1      43.719  -3.717  49.363  1.00  0.00    -0.166 F 
ENDBRANCH  16  24
ENDBRANCH  10  12
ENDBRANCH   1   8
BRANCH   6  28
ATOM     28  N   UNL     1      33.324   0.692  50.350  1.00  0.00    -0.324 N 
ATOM     29  H   UNL     1      32.973   1.293  49.590  1.00  0.00     0.170 HD
BRANCH  28  30
ATOM     30  C   UNL     1      33.160   1.074  51.682  1.00  0.00     0.227 A 
ATOM     31  N   UNL     1      33.873   1.939  52.394  1.00  0.00    -0.221 NA
ATOM     32  N   UNL     1      32.149   0.332  52.203  1.00  0.00    -0.213 NA
ATOM     33  C   UNL     1      33.525   2.092  53.686  1.00  0.00     0.117 A 
ATOM     34  C   UNL     1      31.862   0.495  53.499  1.00  0.00     0.077 A 
ATOM     35  C   UNL     1      32.546   1.376  54.261  1.00  0.00     0.049 A 
BRANCH  34  36
ATOM     36  C   UNL     1      30.725  -0.314  54.012  1.00  0.00     0.019 A 
ATOM     37  C   UNL     1      29.673   0.270  54.734  1.00  0.00     0.013 A 
ATOM     38  C   UNL     1      30.684  -1.706  53.797  1.00  0.00     0.121 A 
ATOM     39  C   UNL     1      28.650  -0.540  55.211  1.00  0.00     0.021 A 
ATOM     40  N   UNL     1      29.705  -2.493  54.261  1.00  0.00    -0.264 NA
ATOM     41  C   UNL     1      28.698  -1.904  54.926  1.00  0.00     0.111 A 
ENDBRANCH  34  36
ENDBRANCH  28  30
ENDBRANCH   6  28
TORSDOF 7
ENDMDL
MODEL 15
REMARK VINA RESULT:   -10.785      4.698     13.500
REMARK INTER + INTRA:         -14.234
REMARK INTER:                 -12.873
REMARK INTRA:                  -1.362
REMARK CONF_INDEPENDENT:        2.088
REMARK UNBOUND:                -1.362
REMARK SMILES Cc1cn(-c2cc(NC(=O)c3ccc(C)c(Nc4nccc(-c5cccnc5)n4)c3)cc(C(F)(F)F)c2)cn1
REMARK SMILES IDX 11 1 12 2 13 3 14 4 15 5 16 6 30 7 9 8 10 9 8 10 7 12 6 13
REMARK SMILES IDX 31 14 5 15 32 16 37 17 4 18 3 19 38 20 2 21 39 22 1 23 33 24
REMARK SMILES IDX 34 25 35 26 36 27 17 28 18 30 19 31 29 32 20 33 22 34 21 35
REMARK SMILES IDX 23 36 24 37 28 38 25 39 27 40 26 41
REMARK H PARENT 8 11 17 29
ROOT
ATOM      1  C   UNL     1      21.039   7.317  54.278  1.00  0.00     0.042 A 
ATOM      2  C   UNL     1      20.869   7.447  55.665  1.00  0.00     0.014 A 
ATOM      3  C   UNL     1      20.129   8.496  56.211  1.00  0.00     0.006 A 
ATOM      4  C   UNL     1      19.604   9.498  55.411  1.00  0.00    -0.027 A 
ATOM      5  C   UNL     1      18.805  10.641  56.022  1.00  0.00     0.046 C 
ATOM      6  C   UNL     1      19.857   9.430  54.042  1.00  0.00     0.045 A 
ATOM      7  C   UNL     1      20.580   8.355  53.510  1.00  0.00     0.040 A 
ENDROOT
BRANCH   1   8
ATOM      8  C   UNL     1      21.906   6.317  53.625  1.00  0.00     0.255 C 
ATOM      9  O   UNL     1      21.900   5.219  54.126  1.00  0.00    -0.269 OA
ATOM     10  N   UNL     1      22.398   6.655  52.423  1.00  0.00    -0.322 N 
ATOM     11  H   UNL     1      22.189   7.604  52.083  1.00  0.00     0.170 HD
BRANCH  10  12
ATOM     12  C   UNL     1      23.163   5.842  51.597  1.00  0.00     0.044 A 
ATOM     13  C   UNL     1      24.243   5.087  52.117  1.00  0.00     0.052 A 
ATOM     14  C   UNL     1      22.958   5.843  50.200  1.00  0.00     0.039 A 
ATOM     15  C   UNL     1      25.013   4.259  51.296  1.00  0.00     0.049 A 
ATOM     16  C   UNL     1      23.729   4.981  49.367  1.00  0.00     0.060 A 
ATOM     17  C   UNL     1      24.765   4.231  49.927  1.00  0.00     0.039 A 
BRANCH  15  18
ATOM     18  N   UNL     1      26.058   3.475  51.808  1.00  0.00    -0.306 N 
ATOM     19  C   UNL     1      26.409   3.246  53.137  1.00  0.00     0.116 A 
ATOM     20  C   UNL     1      27.007   2.847  51.105  1.00  0.00     0.204 A 
ATOM     21  C   UNL     1      27.534   2.498  53.153  1.00  0.00     0.056 A 
ATOM     22  N   UNL     1      27.874   2.232  51.872  1.00  0.00    -0.242 NA
ATOM     23  C   UNL     1      28.287   1.978  54.354  1.00  0.00     0.068 C 
ENDBRANCH  15  18
BRANCH  16  24
ATOM     24  C   UNL     1      23.450   4.958  47.900  1.00  0.00     0.416 C 
ATOM     25  F   UNL     1      24.526   5.156  47.112  1.00  0.00    -0.166 F 
ATOM     26  F   UNL     1      23.042   3.755  47.511  1.00  0.00    -0.166 F 
ATOM     27  F   UNL     1      22.601   5.936  47.523  1.00  0.00    -0.166 F 
ENDBRANCH  16  24
ENDBRANCH  10  12
ENDBRANCH   1   8
BRANCH   6  28
ATOM     28  N   UNL     1      19.203  10.337  53.197  1.00  0.00    -0.324 N 
ATOM     29  H   UNL     1      19.746  10.948  52.572  1.00  0.00     0.170 HD
BRANCH  28  30
ATOM     30  C   UNL     1      17.808  10.403  53.210  1.00  0.00     0.227 A 
ATOM     31  N   UNL     1      17.025  11.472  53.127  1.00  0.00    -0.221 NA
ATOM     32  N   UNL     1      17.337   9.145  53.410  1.00  0.00    -0.213 NA
ATOM     33  C   UNL     1      15.698  11.258  53.210  1.00  0.00     0.117 A 
ATOM     34  C   UNL     1      16.013   8.987  53.518  1.00  0.00     0.077 A 
ATOM     35  C   UNL     1      15.174  10.040  53.422  1.00  0.00     0.049 A 
BRANCH  34  36
ATOM     36  C   UNL     1      15.547   7.588  53.701  1.00  0.00     0.019 A 
ATOM     37  C   UNL     1      14.776   7.208  54.812  1.00  0.00     0.013 A 
ATOM     38  C   UNL     1      15.882   6.593  52.761  1.00  0.00     0.121 A 
ATOM     39  C   UNL     1      14.390   5.881  54.943  1.00  0.00     0.021 A 
ATOM     40  N   UNL     1      15.519   5.310  52.887  1.00  0.00    -0.264 NA
ATOM     41  C   UNL     1      14.761   4.981  53.945  1.00  0.00     0.111 A 
ENDBRANCH  34  36
ENDBRANCH  28  30
ENDBRANCH   6  28
TORSDOF 7
ENDMDL
MODEL 16
REMARK VINA RESULT:   -10.588      8.237     14.915
REMARK INTER + INTRA:         -14.033
REMARK INTER:                 -12.676
REMARK INTRA:                  -1.356
REMARK CONF_INDEPENDENT:        2.088
REMARK UNBOUND:                -1.356
REMARK SMILES Cc1cn(-c2cc(NC(=O)c3ccc(C)c(Nc4nccc(-c5cccnc5)n4)c3)cc(C(F)(F)F)c2)cn1
REMARK SMILES IDX 11 1 12 2 13 3 14 4 15 5 16 6 30 7 9 8 10 9 8 10 7 12 6 13
REMARK SMILES IDX 31 14 5 15 32 16 37 17 4 18 3 19 38 20 2 21 39 22 1 23 33 24
REMARK SMILES IDX 34 25 35 26 36 27 17 28 18 30 19 31 29 32 20 33 22 34 21 35
REMARK SMILES IDX 23 36 24 37 28 38 25 39 27 40 26 41
REMARK H PARENT 8 11 17 29
ROOT
ATOM      1  C   UNL     1      36.084  -1.569  49.455  1.00  0.00     0.042 A 
ATOM      2  C   UNL     1      35.403  -2.779  49.253  1.00  0.00     0.014 A 
ATOM      3  C   UNL     1      34.016  -2.863  49.386  1.00  0.00     0.006 A 
ATOM      4  C   UNL     1      33.267  -1.775  49.804  1.00  0.00    -0.027 A 
ATOM      5  C   UNL     1      31.756  -1.883  49.952  1.00  0.00     0.046 C 
ATOM      6  C   UNL     1      33.951  -0.598  50.106  1.00  0.00     0.045 A 
ATOM      7  C   UNL     1      35.340  -0.527  49.942  1.00  0.00     0.040 A 
ENDROOT
BRANCH   1   8
ATOM      8  C   UNL     1      37.553  -1.419  49.460  1.00  0.00     0.255 C 
ATOM      9  O   UNL     1      37.977  -0.497  50.112  1.00  0.00    -0.269 OA
ATOM     10  N   UNL     1      38.255  -2.449  48.963  1.00  0.00    -0.322 N 
ATOM     11  H   UNL     1      37.717  -3.228  48.558  1.00  0.00     0.170 HD
BRANCH  10  12
ATOM     12  C   UNL     1      39.639  -2.559  48.943  1.00  0.00     0.044 A 
ATOM     13  C   UNL     1      40.387  -2.545  50.147  1.00  0.00     0.052 A 
ATOM     14  C   UNL     1      40.342  -2.565  47.719  1.00  0.00     0.039 A 
ATOM     15  C   UNL     1      41.779  -2.665  50.138  1.00  0.00     0.049 A 
ATOM     16  C   UNL     1      41.759  -2.710  47.712  1.00  0.00     0.060 A 
ATOM     17  C   UNL     1      42.454  -2.723  48.923  1.00  0.00     0.039 A 
BRANCH  15  18
ATOM     18  N   UNL     1      42.525  -2.695  51.326  1.00  0.00    -0.306 N 
ATOM     19  C   UNL     1      42.559  -3.678  52.314  1.00  0.00     0.116 A 
ATOM     20  C   UNL     1      43.304  -1.720  51.808  1.00  0.00     0.204 A 
ATOM     21  C   UNL     1      43.353  -3.241  53.317  1.00  0.00     0.056 A 
ATOM     22  N   UNL     1      43.835  -2.028  52.966  1.00  0.00    -0.242 NA
ATOM     23  C   UNL     1      43.715  -3.959  54.594  1.00  0.00     0.068 C 
ENDBRANCH  15  18
BRANCH  16  24
ATOM     24  C   UNL     1      42.471  -2.774  46.400  1.00  0.00     0.416 C 
ATOM     25  F   UNL     1      43.783  -2.466  46.449  1.00  0.00    -0.166 F 
ATOM     26  F   UNL     1      42.498  -4.017  45.932  1.00  0.00    -0.166 F 
ATOM     27  F   UNL     1      41.976  -1.896  45.504  1.00  0.00    -0.166 F 
ENDBRANCH  16  24
ENDBRANCH  10  12
ENDBRANCH   1   8
BRANCH   6  28
ATOM     28  N   UNL     1      33.204   0.557  50.372  1.00  0.00    -0.324 N 
ATOM     29  H   UNL     1      32.788   1.096  49.599  1.00  0.00     0.170 HD
BRANCH  28  30
ATOM     30  C   UNL     1      33.028   0.972  51.694  1.00  0.00     0.227 A 
ATOM     31  N   UNL     1      33.721   1.869  52.384  1.00  0.00    -0.221 NA
ATOM     32  N   UNL     1      32.030   0.224  52.231  1.00  0.00    -0.213 NA
ATOM     33  C   UNL     1      33.366   2.050  53.670  1.00  0.00     0.117 A 
ATOM     34  C   UNL     1      31.734   0.417  53.521  1.00  0.00     0.077 A 
ATOM     35  C   UNL     1      32.399   1.331  54.261  1.00  0.00     0.049 A 
BRANCH  34  36
ATOM     36  C   UNL     1      30.612  -0.400  54.052  1.00  0.00     0.019 A 
ATOM     37  C   UNL     1      29.538   0.185  54.742  1.00  0.00     0.013 A 
ATOM     38  C   UNL     1      30.606  -1.799  53.888  1.00  0.00     0.121 A 
ATOM     39  C   UNL     1      28.529  -0.631  55.238  1.00  0.00     0.021 A 
ATOM     40  N   UNL     1      29.641  -2.592  54.371  1.00  0.00    -0.264 NA
ATOM     41  C   UNL     1      28.613  -2.003  55.004  1.00  0.00     0.111 A 
ENDBRANCH  34  36
ENDBRANCH  28  30
ENDBRANCH   6  28
TORSDOF 7
ENDMDL
MODEL 17
REMARK VINA RESULT:   -10.566      5.721     10.815
REMARK INTER + INTRA:         -13.786
REMARK INTER:                 -12.654
REMARK INTRA:                  -1.132
REMARK CONF_INDEPENDENT:        2.088
REMARK UNBOUND:                -1.132
REMARK SMILES Cc1cn(-c2cc(NC(=O)c3ccc(C)c(Nc4nccc(-c5cccnc5)n4)c3)cc(C(F)(F)F)c2)cn1
REMARK SMILES IDX 11 1 12 2 13 3 14 4 15 5 16 6 30 7 9 8 10 9 8 10 7 12 6 13
REMARK SMILES IDX 31 14 5 15 32 16 37 17 4 18 3 19 38 20 2 21 39 22 1 23 33 24
REMARK SMILES IDX 34 25 35 26 36 27 17 28 18 30 19 31 29 32 20 33 22 34 21 35
REMARK SMILES IDX 23 36 24 37 28 38 25 39 27 40 26 41
REMARK H PARENT 8 11 17 29
ROOT
ATOM      1  C   UNL     1      22.296   6.488  55.194  1.00  0.00     0.042 A 
ATOM      2  C   UNL     1      21.555   7.627  54.845  1.00  0.00     0.014 A 
ATOM      3  C   UNL     1      21.097   8.522  55.813  1.00  0.00     0.006 A 
ATOM      4  C   UNL     1      21.286   8.277  57.164  1.00  0.00    -0.027 A 
ATOM      5  C   UNL     1      20.774   9.258  58.209  1.00  0.00     0.046 C 
ATOM      6  C   UNL     1      21.931   7.095  57.522  1.00  0.00     0.045 A 
ATOM      7  C   UNL     1      22.405   6.222  56.534  1.00  0.00     0.040 A 
ENDROOT
BRANCH   1   8
ATOM      8  C   UNL     1      22.708   5.428  54.253  1.00  0.00     0.255 C 
ATOM      9  O   UNL     1      21.807   4.794  53.760  1.00  0.00    -0.269 OA
ATOM     10  N   UNL     1      23.991   5.451  53.861  1.00  0.00    -0.322 N 
ATOM     11  H   UNL     1      24.600   6.159  54.295  1.00  0.00     0.170 HD
BRANCH  10  12
ATOM     12  C   UNL     1      24.573   4.606  52.924  1.00  0.00     0.044 A 
ATOM     13  C   UNL     1      23.839   4.152  51.800  1.00  0.00     0.052 A 
ATOM     14  C   UNL     1      25.868   4.085  53.134  1.00  0.00     0.039 A 
ATOM     15  C   UNL     1      24.419   3.310  50.847  1.00  0.00     0.049 A 
ATOM     16  C   UNL     1      26.465   3.245  52.150  1.00  0.00     0.060 A 
ATOM     17  C   UNL     1      25.716   2.846  51.041  1.00  0.00     0.039 A 
BRANCH  15  18
ATOM     18  N   UNL     1      23.715   2.888  49.709  1.00  0.00    -0.306 N 
ATOM     19  C   UNL     1      22.892   1.774  49.551  1.00  0.00     0.116 A 
ATOM     20  C   UNL     1      23.764   3.434  48.488  1.00  0.00     0.204 A 
ATOM     21  C   UNL     1      22.497   1.721  48.260  1.00  0.00     0.056 A 
ATOM     22  N   UNL     1      23.027   2.786  47.620  1.00  0.00    -0.242 NA
ATOM     23  C   UNL     1      21.585   0.709  47.609  1.00  0.00     0.068 C 
ENDBRANCH  15  18
BRANCH  16  24
ATOM     24  C   UNL     1      27.860   2.757  52.369  1.00  0.00     0.416 C 
ATOM     25  F   UNL     1      28.457   3.219  53.486  1.00  0.00    -0.166 F 
ATOM     26  F   UNL     1      27.880   1.444  52.570  1.00  0.00    -0.166 F 
ATOM     27  F   UNL     1      28.698   3.140  51.384  1.00  0.00    -0.166 F 
ENDBRANCH  16  24
ENDBRANCH  10  12
ENDBRANCH   1   8
BRANCH   6  28
ATOM     28  N   UNL     1      22.277   6.905  58.866  1.00  0.00    -0.324 N 
ATOM     29  H   UNL     1      21.751   6.238  59.448  1.00  0.00     0.170 HD
BRANCH  28  30
ATOM     30  C   UNL     1      23.339   7.629  59.411  1.00  0.00     0.227 A 
ATOM     31  N   UNL     1      23.610   8.923  59.298  1.00  0.00    -0.221 NA
ATOM     32  N   UNL     1      24.151   6.749  60.052  1.00  0.00    -0.213 NA
ATOM     33  C   UNL     1      24.736   9.360  59.894  1.00  0.00     0.117 A 
ATOM     34  C   UNL     1      25.274   7.225  60.601  1.00  0.00     0.077 A 
ATOM     35  C   UNL     1      25.585   8.537  60.529  1.00  0.00     0.049 A 
BRANCH  34  36
ATOM     36  C   UNL     1      26.110   6.229  61.320  1.00  0.00     0.019 A 
ATOM     37  C   UNL     1      26.404   6.364  62.687  1.00  0.00     0.013 A 
ATOM     38  C   UNL     1      26.647   5.119  60.638  1.00  0.00     0.121 A 
ATOM     39  C   UNL     1      27.211   5.415  63.301  1.00  0.00     0.021 A 
ATOM     40  N   UNL     1      27.433   4.206  61.223  1.00  0.00    -0.264 NA
ATOM     41  C   UNL     1      27.676   4.346  62.536  1.00  0.00     0.111 A 
ENDBRANCH  34  36
ENDBRANCH  28  30
ENDBRANCH   6  28
TORSDOF 7
ENDMDL
MODEL 18
REMARK VINA RESULT:   -10.477      4.018     11.370
REMARK INTER + INTRA:         -13.794
REMARK INTER:                 -12.565
REMARK INTRA:                  -1.228
REMARK CONF_INDEPENDENT:        2.088
REMARK UNBOUND:                -1.228
REMARK SMILES Cc1cn(-c2cc(NC(=O)c3ccc(C)c(Nc4nccc(-c5cccnc5)n4)c3)cc(C(F)(F)F)c2)cn1
REMARK SMILES IDX 11 1 12 2 13 3 14 4 15 5 16 6 30 7 9 8 10 9 8 10 7 12 6 13
REMARK SMILES IDX 31 14 5 15 32 16 37 17 4 18 3 19 38 20 2 21 39 22 1 23 33 24
REMARK SMILES IDX 34 25 35 26 36 27 17 28 18 30 19 31 29 32 20 33 22 34 21 35
REMARK SMILES IDX 23 36 24 37 28 38 25 39 27 40 26 41
REMARK H PARENT 8 11 17 29
ROOT
ATOM      1  C   UNL     1      26.267   3.596  51.660  1.00  0.00     0.042 A 
ATOM      2  C   UNL     1      25.649   3.933  50.447  1.00  0.00     0.014 A 
ATOM      3  C   UNL     1      24.395   4.544  50.414  1.00  0.00     0.006 A 
ATOM      4  C   UNL     1      23.674   4.765  51.577  1.00  0.00    -0.027 A 
ATOM      5  C   UNL     1      22.303   5.425  51.526  1.00  0.00     0.046 C 
ATOM      6  C   UNL     1      24.237   4.337  52.778  1.00  0.00     0.045 A 
ATOM      7  C   UNL     1      25.508   3.749  52.791  1.00  0.00     0.040 A 
ENDROOT
BRANCH   1   8
ATOM      8  C   UNL     1      27.527   2.837  51.783  1.00  0.00     0.255 C 
ATOM      9  O   UNL     1      28.537   3.488  51.668  1.00  0.00    -0.269 OA
ATOM     10  N   UNL     1      27.421   1.584  52.251  1.00  0.00    -0.322 N 
ATOM     11  H   UNL     1      26.470   1.229  52.424  1.00  0.00     0.170 HD
BRANCH  10  12
ATOM     12  C   UNL     1      28.476   0.723  52.524  1.00  0.00     0.044 A 
ATOM     13  C   UNL     1      29.596   0.648  51.660  1.00  0.00     0.052 A 
ATOM     14  C   UNL     1      28.401  -0.185  53.603  1.00  0.00     0.039 A 
ATOM     15  C   UNL     1      30.666  -0.209  51.931  1.00  0.00     0.049 A 
ATOM     16  C   UNL     1      29.502  -1.041  53.891  1.00  0.00     0.060 A 
ATOM     17  C   UNL     1      30.601  -1.061  53.029  1.00  0.00     0.039 A 
BRANCH  15  18
ATOM     18  N   UNL     1      31.799  -0.260  51.104  1.00  0.00    -0.306 N 
ATOM     19  C   UNL     1      32.166  -1.237  50.181  1.00  0.00     0.116 A 
ATOM     20  C   UNL     1      32.827   0.597  51.100  1.00  0.00     0.204 A 
ATOM     21  C   UNL     1      33.377  -0.911  49.679  1.00  0.00     0.056 A 
ATOM     22  N   UNL     1      33.758   0.257  50.243  1.00  0.00    -0.242 NA
ATOM     23  C   UNL     1      34.180  -1.649  48.636  1.00  0.00     0.068 C 
ENDBRANCH  15  18
BRANCH  16  24
ATOM     24  C   UNL     1      29.421  -1.948  55.075  1.00  0.00     0.416 C 
ATOM     25  F   UNL     1      28.521  -1.585  56.010  1.00  0.00    -0.166 F 
ATOM     26  F   UNL     1      28.982  -3.152  54.724  1.00  0.00    -0.166 F 
ATOM     27  F   UNL     1      30.581  -2.002  55.761  1.00  0.00    -0.166 F 
ENDBRANCH  16  24
ENDBRANCH  10  12
ENDBRANCH   1   8
BRANCH   6  28
ATOM     28  N   UNL     1      23.604   4.695  53.976  1.00  0.00    -0.324 N 
ATOM     29  H   UNL     1      23.007   4.017  54.469  1.00  0.00     0.170 HD
BRANCH  28  30
ATOM     30  C   UNL     1      23.790   5.977  54.495  1.00  0.00     0.227 A 
ATOM     31  N   UNL     1      23.548   7.150  53.923  1.00  0.00    -0.221 NA
ATOM     32  N   UNL     1      24.363   5.847  55.719  1.00  0.00    -0.213 NA
ATOM     33  C   UNL     1      23.863   8.248  54.636  1.00  0.00     0.117 A 
ATOM     34  C   UNL     1      24.687   6.967  56.376  1.00  0.00     0.077 A 
ATOM     35  C   UNL     1      24.444   8.184  55.844  1.00  0.00     0.049 A 
BRANCH  34  36
ATOM     36  C   UNL     1      25.278   6.771  57.726  1.00  0.00     0.019 A 
ATOM     37  C   UNL     1      24.474   6.628  58.868  1.00  0.00     0.013 A 
ATOM     38  C   UNL     1      26.676   6.738  57.897  1.00  0.00     0.121 A 
ATOM     39  C   UNL     1      25.082   6.473  60.107  1.00  0.00     0.021 A 
ATOM     40  N   UNL     1      27.268   6.597  59.090  1.00  0.00    -0.264 NA
ATOM     41  C   UNL     1      26.475   6.437  60.161  1.00  0.00     0.111 A 
ENDBRANCH  34  36
ENDBRANCH  28  30
ENDBRANCH   6  28
TORSDOF 7
ENDMDL
MODEL 19
REMARK VINA RESULT:   -10.237      8.398     14.857
REMARK INTER + INTRA:         -13.653
REMARK INTER:                 -12.325
REMARK INTRA:                  -1.328
REMARK CONF_INDEPENDENT:        2.088
REMARK UNBOUND:                -1.328
REMARK SMILES Cc1cn(-c2cc(NC(=O)c3ccc(C)c(Nc4nccc(-c5cccnc5)n4)c3)cc(C(F)(F)F)c2)cn1
REMARK SMILES IDX 11 1 12 2 13 3 14 4 15 5 16 6 30 7 9 8 10 9 8 10 7 12 6 13
REMARK SMILES IDX 31 14 5 15 32 16 37 17 4 18 3 19 38 20 2 21 39 22 1 23 33 24
REMARK SMILES IDX 34 25 35 26 36 27 17 28 18 30 19 31 29 32 20 33 22 34 21 35
REMARK SMILES IDX 23 36 24 37 28 38 25 39 27 40 26 41
REMARK H PARENT 8 11 17 29
ROOT
ATOM      1  C   UNL     1      35.981  -1.614  49.179  1.00  0.00     0.042 A 
ATOM      2  C   UNL     1      35.258  -2.813  49.096  1.00  0.00     0.014 A 
ATOM      3  C   UNL     1      33.893  -2.861  49.387  1.00  0.00     0.006 A 
ATOM      4  C   UNL     1      33.218  -1.742  49.848  1.00  0.00    -0.027 A 
ATOM      5  C   UNL     1      31.731  -1.811  50.168  1.00  0.00     0.046 C 
ATOM      6  C   UNL     1      33.954  -0.573  50.031  1.00  0.00     0.045 A 
ATOM      7  C   UNL     1      35.317  -0.539  49.710  1.00  0.00     0.040 A 
ENDROOT
BRANCH   1   8
ATOM      8  C   UNL     1      37.443  -1.498  49.014  1.00  0.00     0.255 C 
ATOM      9  O   UNL     1      38.046  -1.114  49.986  1.00  0.00    -0.269 OA
ATOM     10  N   UNL     1      37.961  -2.061  47.912  1.00  0.00    -0.322 N 
ATOM     11  H   UNL     1      37.297  -2.468  47.239  1.00  0.00     0.170 HD
BRANCH  10  12
ATOM     12  C   UNL     1      39.311  -2.145  47.595  1.00  0.00     0.044 A 
ATOM     13  C   UNL     1      40.134  -0.991  47.609  1.00  0.00     0.052 A 
ATOM     14  C   UNL     1      39.867  -3.359  47.136  1.00  0.00     0.039 A 
ATOM     15  C   UNL     1      41.495  -1.067  47.302  1.00  0.00     0.049 A 
ATOM     16  C   UNL     1      41.259  -3.438  46.845  1.00  0.00     0.060 A 
ATOM     17  C   UNL     1      42.040  -2.282  46.901  1.00  0.00     0.039 A 
BRANCH  15  18
ATOM     18  N   UNL     1      42.327   0.062  47.353  1.00  0.00    -0.306 N 
ATOM     19  C   UNL     1      42.026   1.353  47.784  1.00  0.00     0.116 A 
ATOM     20  C   UNL     1      43.584   0.152  46.902  1.00  0.00     0.204 A 
ATOM     21  C   UNL     1      43.110   2.131  47.573  1.00  0.00     0.056 A 
ATOM     22  N   UNL     1      44.084   1.354  47.050  1.00  0.00    -0.242 NA
ATOM     23  C   UNL     1      43.277   3.597  47.894  1.00  0.00     0.068 C 
ENDBRANCH  15  18
BRANCH  16  24
ATOM     24  C   UNL     1      41.833  -4.751  46.419  1.00  0.00     0.416 C 
ATOM     25  F   UNL     1      42.732  -5.283  47.271  1.00  0.00    -0.166 F 
ATOM     26  F   UNL     1      40.897  -5.692  46.384  1.00  0.00    -0.166 F 
ATOM     27  F   UNL     1      42.516  -4.660  45.259  1.00  0.00    -0.166 F 
ENDBRANCH  16  24
ENDBRANCH  10  12
ENDBRANCH   1   8
BRANCH   6  28
ATOM     28  N   UNL     1      33.265   0.607  50.339  1.00  0.00    -0.324 N 
ATOM     29  H   UNL     1      32.865   1.187  49.587  1.00  0.00     0.170 HD
BRANCH  28  30
ATOM     30  C   UNL     1      33.123   0.992  51.674  1.00  0.00     0.227 A 
ATOM     31  N   UNL     1      33.852   1.851  52.374  1.00  0.00    -0.221 NA
ATOM     32  N   UNL     1      32.115   0.257  52.210  1.00  0.00    -0.213 NA
ATOM     33  C   UNL     1      33.525   2.007  53.671  1.00  0.00     0.117 A 
ATOM     34  C   UNL     1      31.848   0.423  53.510  1.00  0.00     0.077 A 
ATOM     35  C   UNL     1      32.549   1.299  54.261  1.00  0.00     0.049 A 
BRANCH  34  36
ATOM     36  C   UNL     1      30.713  -0.378  54.040  1.00  0.00     0.019 A 
ATOM     37  C   UNL     1      29.659   0.219  54.749  1.00  0.00     0.013 A 
ATOM     38  C   UNL     1      30.676  -1.774  53.855  1.00  0.00     0.121 A 
ATOM     39  C   UNL     1      28.638  -0.583  55.243  1.00  0.00     0.021 A 
ATOM     40  N   UNL     1      29.698  -2.553  54.335  1.00  0.00    -0.264 NA
ATOM     41  C   UNL     1      28.690  -1.953  54.988  1.00  0.00     0.111 A 
ENDBRANCH  34  36
ENDBRANCH  28  30
ENDBRANCH   6  28
TORSDOF 7
ENDMDL
MODEL 20
REMARK VINA RESULT:    -9.559      4.254     10.421
REMARK INTER + INTRA:         -13.594
REMARK INTER:                 -11.647
REMARK INTRA:                  -1.948
REMARK CONF_INDEPENDENT:        2.088
REMARK UNBOUND:                -1.948
REMARK SMILES Cc1cn(-c2cc(NC(=O)c3ccc(C)c(Nc4nccc(-c5cccnc5)n4)c3)cc(C(F)(F)F)c2)cn1
REMARK SMILES IDX 11 1 12 2 13 3 14 4 15 5 16 6 30 7 9 8 10 9 8 10 7 12 6 13
REMARK SMILES IDX 31 14 5 15 32 16 37 17 4 18 3 19 38 20 2 21 39 22 1 23 33 24
REMARK SMILES IDX 34 25 35 26 36 27 17 28 18 30 19 31 29 32 20 33 22 34 21 35
REMARK SMILES IDX 23 36 24 37 28 38 25 39 27 40 26 41
REMARK H PARENT 8 11 17 29
ROOT
ATOM      1  C   UNL     1      21.836   7.895  53.365  1.00  0.00     0.042 A 
ATOM      2  C   UNL     1      21.307   9.186  53.220  1.00  0.00     0.014 A 
ATOM      3  C   UNL     1      20.554   9.781  54.234  1.00  0.00     0.006 A 
ATOM      4  C   UNL     1      20.229   9.088  55.389  1.00  0.00    -0.027 A 
ATOM      5  C   UNL     1      19.401   9.747  56.482  1.00  0.00     0.046 C 
ATOM      6  C   UNL     1      20.664   7.768  55.494  1.00  0.00     0.045 A 
ATOM      7  C   UNL     1      21.440   7.197  54.477  1.00  0.00     0.040 A 
ENDROOT
BRANCH   1   8
ATOM      8  C   UNL     1      22.532   7.144  52.301  1.00  0.00     0.255 C 
ATOM      9  O   UNL     1      22.658   7.728  51.253  1.00  0.00    -0.269 OA
ATOM     10  N   UNL     1      23.159   6.021  52.683  1.00  0.00    -0.322 N 
ATOM     11  H   UNL     1      23.052   5.737  53.667  1.00  0.00     0.170 HD
BRANCH  10  12
ATOM     12  C   UNL     1      23.941   5.207  51.872  1.00  0.00     0.044 A 
ATOM     13  C   UNL     1      25.084   4.549  52.389  1.00  0.00     0.052 A 
ATOM     14  C   UNL     1      23.683   5.115  50.487  1.00  0.00     0.039 A 
ATOM     15  C   UNL     1      25.870   3.720  51.584  1.00  0.00     0.049 A 
ATOM     16  C   UNL     1      24.472   4.252  49.673  1.00  0.00     0.060 A 
ATOM     17  C   UNL     1      25.572   3.597  50.230  1.00  0.00     0.039 A 
BRANCH  15  18
ATOM     18  N   UNL     1      26.979   3.030  52.096  1.00  0.00    -0.306 N 
ATOM     19  C   UNL     1      27.359   2.846  53.424  1.00  0.00     0.116 A 
ATOM     20  C   UNL     1      27.970   2.472  51.391  1.00  0.00     0.204 A 
ATOM     21  C   UNL     1      28.541   2.192  53.438  1.00  0.00     0.056 A 
ATOM     22  N   UNL     1      28.890   1.938  52.157  1.00  0.00    -0.242 NA
ATOM     23  C   UNL     1      29.343   1.749  54.638  1.00  0.00     0.068 C 
ENDBRANCH  15  18
BRANCH  16  24
ATOM     24  C   UNL     1      24.139   4.127  48.222  1.00  0.00     0.416 C 
ATOM     25  F   UNL     1      24.502   2.960  47.653  1.00  0.00    -0.166 F 
ATOM     26  F   UNL     1      22.825   4.128  48.032  1.00  0.00    -0.166 F 
ATOM     27  F   UNL     1      24.770   5.052  47.469  1.00  0.00    -0.166 F 
ENDBRANCH  16  24
ENDBRANCH  10  12
ENDBRANCH   1   8
BRANCH   6  28
ATOM     28  N   UNL     1      20.489   7.103  56.714  1.00  0.00    -0.324 N 
ATOM     29  H   UNL     1      19.662   6.509  56.868  1.00  0.00     0.170 HD
BRANCH  28  30
ATOM     30  C   UNL     1      21.445   7.253  57.721  1.00  0.00     0.227 A 
ATOM     31  N   UNL     1      21.271   7.609  58.988  1.00  0.00    -0.221 NA
ATOM     32  N   UNL     1      22.666   7.042  57.165  1.00  0.00    -0.213 NA
ATOM     33  C   UNL     1      22.380   7.721  59.743  1.00  0.00     0.117 A 
ATOM     34  C   UNL     1      23.740   7.197  57.947  1.00  0.00     0.077 A 
ATOM     35  C   UNL     1      23.614   7.541  59.247  1.00  0.00     0.049 A 
BRANCH  34  36
ATOM     36  C   UNL     1      25.050   6.920  57.301  1.00  0.00     0.019 A 
ATOM     37  C   UNL     1      25.147   6.631  55.930  1.00  0.00     0.013 A 
ATOM     38  C   UNL     1      26.237   6.928  58.059  1.00  0.00     0.121 A 
ATOM     39  C   UNL     1      26.395   6.356  55.386  1.00  0.00     0.021 A 
ATOM     40  N   UNL     1      27.442   6.655  57.541  1.00  0.00    -0.264 NA
ATOM     41  C   UNL     1      27.509   6.407  56.223  1.00  0.00     0.111 A 
ENDBRANCH  34  36
ENDBRANCH  28  30
ENDBRANCH   6  28
TORSDOF 7
ENDMDL
