MODEL 1
REMARK VINA RESULT:   -14.412      0.000      0.000
REMARK INTER + INTRA:         -17.666
REMARK INTER:                 -16.500
REMARK INTRA:                  -1.166
REMARK CONF_INDEPENDENT:        2.088
REMARK UNBOUND:                -1.166
REMARK SMILES Cc1cn(-c2cc(NC(=O)c3ccc(C)c(Nc4nccc(-c5cccnc5)n4)c3)cc(C(F)(F)F)c2)cn1
REMARK SMILES IDX 11 1 12 2 13 3 14 4 15 5 16 6 30 7 9 8 10 9 8 10 7 12 6 13
REMARK SMILES IDX 31 14 5 15 32 16 37 17 4 18 3 19 38 20 2 21 39 22 1 23 33 24
REMARK SMILES IDX 34 25 35 26 36 27 17 28 18 30 19 31 29 32 20 33 22 34 21 35
REMARK SMILES IDX 23 36 24 37 28 38 25 39 27 40 26 41
REMARK H PARENT 8 11 17 29
ROOT
ATOM      1  C   UNL     1      27.930   1.683  53.085  1.00  0.00     0.042 A 
ATOM      2  C   UNL     1      27.623   1.136  54.340  1.00  0.00     0.014 A 
ATOM      3  C   UNL     1      28.334   0.050  54.853  1.00  0.00     0.006 A 
ATOM      4  C   UNL     1      29.315  -0.583  54.108  1.00  0.00    -0.027 A 
ATOM      5  C   UNL     1      30.076  -1.772  54.678  1.00  0.00     0.046 C 
ATOM      6  C   UNL     1      29.554  -0.110  52.819  1.00  0.00     0.045 A 
ATOM      7  C   UNL     1      28.847   0.997  52.331  1.00  0.00     0.040 A 
ENDROOT
BRANCH   1   8
ATOM      8  C   UNL     1      27.153   2.743  52.413  1.00  0.00     0.255 C 
ATOM      9  O   UNL     1      27.444   2.948  51.260  1.00  0.00    -0.269 OA
ATOM     10  N   UNL     1      26.062   3.177  53.061  1.00  0.00    -0.322 N 
ATOM     11  H   UNL     1      25.890   2.788  53.999  1.00  0.00     0.170 HD
BRANCH  10  12
ATOM     12  C   UNL     1      25.143   4.103  52.583  1.00  0.00     0.044 A 
ATOM     13  C   UNL     1      24.224   4.734  53.458  1.00  0.00     0.052 A 
ATOM     14  C   UNL     1      25.024   4.346  51.197  1.00  0.00     0.039 A 
ATOM     15  C   UNL     1      23.303   5.674  52.988  1.00  0.00     0.049 A 
ATOM     16  C   UNL     1      24.099   5.320  50.723  1.00  0.00     0.060 A 
ATOM     17  C   UNL     1      23.232   5.942  51.625  1.00  0.00     0.039 A 
BRANCH  15  18
ATOM     18  N   UNL     1      22.417   6.335  53.852  1.00  0.00    -0.306 N 
ATOM     19  C   UNL     1      22.115   6.050  55.183  1.00  0.00     0.116 A 
ATOM     20  C   UNL     1      21.595   7.344  53.539  1.00  0.00     0.204 A 
ATOM     21  C   UNL     1      21.144   6.898  55.586  1.00  0.00     0.056 A 
ATOM     22  N   UNL     1      20.855   7.721  54.553  1.00  0.00    -0.242 NA
ATOM     23  C   UNL     1      20.499   6.992  56.948  1.00  0.00     0.068 C 
ENDBRANCH  15  18
BRANCH  16  24
ATOM     24  C   UNL     1      24.036   5.601  49.257  1.00  0.00     0.416 C 
ATOM     25  F   UNL     1      24.900   6.538  48.819  1.00  0.00    -0.166 F 
ATOM     26  F   UNL     1      24.403   4.538  48.551  1.00  0.00    -0.166 F 
ATOM     27  F   UNL     1      22.834   6.082  48.878  1.00  0.00    -0.166 F 
ENDBRANCH  16  24
ENDBRANCH  10  12
ENDBRANCH   1   8
BRANCH   6  28
ATOM     28  N   UNL     1      30.646  -0.627  52.111  1.00  0.00    -0.324 N 
ATOM     29  H   UNL     1      30.524  -1.435  51.485  1.00  0.00     0.170 HD
BRANCH  28  30
ATOM     30  C   UNL     1      31.903  -0.036  52.260  1.00  0.00     0.227 A 
ATOM     31  N   UNL     1      32.279   0.920  53.101  1.00  0.00    -0.221 NA
ATOM     32  N   UNL     1      32.719  -0.559  51.309  1.00  0.00    -0.213 NA
ATOM     33  C   UNL     1      33.553   1.343  53.005  1.00  0.00     0.117 A 
ATOM     34  C   UNL     1      33.968  -0.083  51.232  1.00  0.00     0.077 A 
ATOM     35  C   UNL     1      34.403   0.876  52.076  1.00  0.00     0.049 A 
BRANCH  34  36
ATOM     36  C   UNL     1      34.831  -0.712  50.199  1.00  0.00     0.019 A 
ATOM     37  C   UNL     1      36.119  -0.226  49.921  1.00  0.00     0.013 A 
ATOM     38  C   UNL     1      34.368  -1.814  49.453  1.00  0.00     0.121 A 
ATOM     39  C   UNL     1      36.872  -0.838  48.927  1.00  0.00     0.021 A 
ATOM     40  N   UNL     1      35.086  -2.403  48.488  1.00  0.00    -0.264 NA
ATOM     41  C   UNL     1      36.324  -1.934  48.262  1.00  0.00     0.111 A 
ENDBRANCH  34  36
ENDBRANCH  28  30
ENDBRANCH   6  28
TORSDOF 7
ENDMDL
MODEL 2
REMARK VINA RESULT:   -13.397      2.267      3.587
REMARK INTER + INTRA:         -16.709
REMARK INTER:                 -15.485
REMARK INTRA:                  -1.224
REMARK CONF_INDEPENDENT:        2.088
REMARK UNBOUND:                -1.224
REMARK SMILES Cc1cn(-c2cc(NC(=O)c3ccc(C)c(Nc4nccc(-c5cccnc5)n4)c3)cc(C(F)(F)F)c2)cn1
REMARK SMILES IDX 11 1 12 2 13 3 14 4 15 5 16 6 30 7 9 8 10 9 8 10 7 12 6 13
REMARK SMILES IDX 31 14 5 15 32 16 37 17 4 18 3 19 38 20 2 21 39 22 1 23 33 24
REMARK SMILES IDX 34 25 35 26 36 27 17 28 18 30 19 31 29 32 20 33 22 34 21 35
REMARK SMILES IDX 23 36 24 37 28 38 25 39 27 40 26 41
REMARK H PARENT 8 11 17 29
ROOT
ATOM      1  C   UNL     1      28.231   1.421  53.342  1.00  0.00     0.042 A 
ATOM      2  C   UNL     1      27.892   0.759  54.531  1.00  0.00     0.014 A 
ATOM      3  C   UNL     1      28.568  -0.392  54.939  1.00  0.00     0.006 A 
ATOM      4  C   UNL     1      29.544  -0.973  54.145  1.00  0.00    -0.027 A 
ATOM      5  C   UNL     1      30.267  -2.232  54.599  1.00  0.00     0.046 C 
ATOM      6  C   UNL     1      29.812  -0.377  52.913  1.00  0.00     0.045 A 
ATOM      7  C   UNL     1      29.141   0.792  52.533  1.00  0.00     0.040 A 
ENDROOT
BRANCH   1   8
ATOM      8  C   UNL     1      27.490   2.564  52.773  1.00  0.00     0.255 C 
ATOM      9  O   UNL     1      27.798   2.874  51.648  1.00  0.00    -0.269 OA
ATOM     10  N   UNL     1      26.404   2.963  53.454  1.00  0.00    -0.322 N 
ATOM     11  H   UNL     1      26.212   2.489  54.347  1.00  0.00     0.170 HD
BRANCH  10  12
ATOM     12  C   UNL     1      25.516   3.958  53.063  1.00  0.00     0.044 A 
ATOM     13  C   UNL     1      25.139   4.103  51.705  1.00  0.00     0.052 A 
ATOM     14  C   UNL     1      25.064   4.921  53.991  1.00  0.00     0.039 A 
ATOM     15  C   UNL     1      24.239   5.094  51.304  1.00  0.00     0.049 A 
ATOM     16  C   UNL     1      24.130   5.916  53.585  1.00  0.00     0.060 A 
ATOM     17  C   UNL     1      23.761   6.005  52.241  1.00  0.00     0.039 A 
BRANCH  15  18
ATOM     18  N   UNL     1      23.826   5.220  49.969  1.00  0.00    -0.306 N 
ATOM     19  C   UNL     1      22.590   5.624  49.469  1.00  0.00     0.116 A 
ATOM     20  C   UNL     1      24.525   4.881  48.879  1.00  0.00     0.204 A 
ATOM     21  C   UNL     1      22.621   5.510  48.123  1.00  0.00     0.056 A 
ATOM     22  N   UNL     1      23.851   5.075  47.772  1.00  0.00    -0.242 NA
ATOM     23  C   UNL     1      21.529   5.847  47.137  1.00  0.00     0.068 C 
ENDBRANCH  15  18
BRANCH  16  24
ATOM     24  C   UNL     1      23.621   6.886  54.601  1.00  0.00     0.416 C 
ATOM     25  F   UNL     1      22.653   6.410  55.409  1.00  0.00    -0.166 F 
ATOM     26  F   UNL     1      24.571   7.208  55.471  1.00  0.00    -0.166 F 
ATOM     27  F   UNL     1      23.052   7.971  54.036  1.00  0.00    -0.166 F 
ENDBRANCH  16  24
ENDBRANCH  10  12
ENDBRANCH   1   8
BRANCH   6  28
ATOM     28  N   UNL     1      30.902  -0.848  52.169  1.00  0.00    -0.324 N 
ATOM     29  H   UNL     1      30.788  -1.649  51.532  1.00  0.00     0.170 HD
BRANCH  28  30
ATOM     30  C   UNL     1      32.143  -0.222  52.297  1.00  0.00     0.227 A 
ATOM     31  N   UNL     1      32.501   0.757  53.119  1.00  0.00    -0.221 NA
ATOM     32  N   UNL     1      32.965  -0.738  51.348  1.00  0.00    -0.213 NA
ATOM     33  C   UNL     1      33.763   1.213  53.005  1.00  0.00     0.117 A 
ATOM     34  C   UNL     1      34.199  -0.231  51.251  1.00  0.00     0.077 A 
ATOM     35  C   UNL     1      34.616   0.753  52.077  1.00  0.00     0.049 A 
BRANCH  34  36
ATOM     36  C   UNL     1      35.071  -0.853  50.221  1.00  0.00     0.019 A 
ATOM     37  C   UNL     1      36.300  -0.282  49.855  1.00  0.00     0.013 A 
ATOM     38  C   UNL     1      34.673  -2.037  49.568  1.00  0.00     0.121 A 
ATOM     39  C   UNL     1      37.061  -0.895  48.867  1.00  0.00     0.021 A 
ATOM     40  N   UNL     1      35.399  -2.627  48.610  1.00  0.00    -0.264 NA
ATOM     41  C   UNL     1      36.582  -2.074  48.297  1.00  0.00     0.111 A 
ENDBRANCH  34  36
ENDBRANCH  28  30
ENDBRANCH   6  28
TORSDOF 7
ENDMDL
MODEL 3
REMARK VINA RESULT:   -12.225      1.462      2.069
REMARK INTER + INTRA:         -15.756
REMARK INTER:                 -14.313
REMARK INTRA:                  -1.442
REMARK CONF_INDEPENDENT:        2.088
REMARK UNBOUND:                -1.442
REMARK SMILES Cc1cn(-c2cc(NC(=O)c3ccc(C)c(Nc4nccc(-c5cccnc5)n4)c3)cc(C(F)(F)F)c2)cn1
REMARK SMILES IDX 11 1 12 2 13 3 14 4 15 5 16 6 30 7 9 8 10 9 8 10 7 12 6 13
REMARK SMILES IDX 31 14 5 15 32 16 37 17 4 18 3 19 38 20 2 21 39 22 1 23 33 24
REMARK SMILES IDX 34 25 35 26 36 27 17 28 18 30 19 31 29 32 20 33 22 34 21 35
REMARK SMILES IDX 23 36 24 37 28 38 25 39 27 40 26 41
REMARK H PARENT 8 11 17 29
ROOT
ATOM      1  C   UNL     1      27.996   1.919  52.916  1.00  0.00     0.042 A 
ATOM      2  C   UNL     1      27.600   0.609  53.226  1.00  0.00     0.014 A 
ATOM      3  C   UNL     1      28.436  -0.255  53.934  1.00  0.00     0.006 A 
ATOM      4  C   UNL     1      29.723   0.118  54.286  1.00  0.00    -0.027 A 
ATOM      5  C   UNL     1      30.627  -0.838  55.051  1.00  0.00     0.046 C 
ATOM      6  C   UNL     1      30.160   1.381  53.890  1.00  0.00     0.045 A 
ATOM      7  C   UNL     1      29.297   2.243  53.202  1.00  0.00     0.040 A 
ENDROOT
BRANCH   1   8
ATOM      8  C   UNL     1      27.232   2.853  52.067  1.00  0.00     0.255 C 
ATOM      9  O   UNL     1      27.528   2.851  50.897  1.00  0.00    -0.269 OA
ATOM     10  N   UNL     1      26.144   3.405  52.625  1.00  0.00    -0.322 N 
ATOM     11  H   UNL     1      25.966   3.188  53.616  1.00  0.00     0.170 HD
BRANCH  10  12
ATOM     12  C   UNL     1      25.236   4.243  51.989  1.00  0.00     0.044 A 
ATOM     13  C   UNL     1      24.358   5.065  52.737  1.00  0.00     0.052 A 
ATOM     14  C   UNL     1      25.085   4.204  50.585  1.00  0.00     0.039 A 
ATOM     15  C   UNL     1      23.448   5.918  52.105  1.00  0.00     0.049 A 
ATOM     16  C   UNL     1      24.174   5.090  49.943  1.00  0.00     0.060 A 
ATOM     17  C   UNL     1      23.347   5.906  50.718  1.00  0.00     0.039 A 
BRANCH  15  18
ATOM     18  N   UNL     1      22.603   6.767  52.836  1.00  0.00    -0.306 N 
ATOM     19  C   UNL     1      22.422   8.143  52.709  1.00  0.00     0.116 A 
ATOM     20  C   UNL     1      21.850   6.433  53.891  1.00  0.00     0.204 A 
ATOM     21  C   UNL     1      21.575   8.549  53.681  1.00  0.00     0.056 A 
ATOM     22  N   UNL     1      21.203   7.459  54.389  1.00  0.00    -0.242 NA
ATOM     23  C   UNL     1      21.060   9.943  53.941  1.00  0.00     0.068 C 
ENDBRANCH  15  18
BRANCH  16  24
ATOM     24  C   UNL     1      24.078   5.070  48.452  1.00  0.00     0.416 C 
ATOM     25  F   UNL     1      24.527   6.182  47.838  1.00  0.00    -0.166 F 
ATOM     26  F   UNL     1      24.866   4.134  47.936  1.00  0.00    -0.166 F 
ATOM     27  F   UNL     1      22.804   4.967  48.021  1.00  0.00    -0.166 F 
ENDBRANCH  16  24
ENDBRANCH  10  12
ENDBRANCH   1   8
BRANCH   6  28
ATOM     28  N   UNL     1      31.392   1.841  54.372  1.00  0.00    -0.324 N 
ATOM     29  H   UNL     1      31.426   2.545  55.123  1.00  0.00     0.170 HD
BRANCH  28  30
ATOM     30  C   UNL     1      32.575   1.338  53.827  1.00  0.00     0.227 A 
ATOM     31  N   UNL     1      33.826   1.550  54.213  1.00  0.00    -0.221 NA
ATOM     32  N   UNL     1      32.245   0.613  52.727  1.00  0.00    -0.213 NA
ATOM     33  C   UNL     1      34.794   0.972  53.476  1.00  0.00     0.117 A 
ATOM     34  C   UNL     1      33.242   0.084  52.008  1.00  0.00     0.077 A 
ATOM     35  C   UNL     1      34.532   0.257  52.371  1.00  0.00     0.049 A 
BRANCH  34  36
ATOM     36  C   UNL     1      32.828  -0.729  50.835  1.00  0.00     0.019 A 
ATOM     37  C   UNL     1      31.478  -0.860  50.471  1.00  0.00     0.013 A 
ATOM     38  C   UNL     1      33.789  -1.407  50.060  1.00  0.00     0.121 A 
ATOM     39  C   UNL     1      31.148  -1.653  49.380  1.00  0.00     0.021 A 
ATOM     40  N   UNL     1      33.476  -2.179  49.012  1.00  0.00    -0.264 NA
ATOM     41  C   UNL     1      32.180  -2.267  48.670  1.00  0.00     0.111 A 
ENDBRANCH  34  36
ENDBRANCH  28  30
ENDBRANCH   6  28
TORSDOF 7
ENDMDL
MODEL 4
REMARK VINA RESULT:   -11.792      1.672      3.664
REMARK INTER + INTRA:         -15.423
REMARK INTER:                 -13.880
REMARK INTRA:                  -1.543
REMARK CONF_INDEPENDENT:        2.088
REMARK UNBOUND:                -1.543
REMARK SMILES Cc1cn(-c2cc(NC(=O)c3ccc(C)c(Nc4nccc(-c5cccnc5)n4)c3)cc(C(F)(F)F)c2)cn1
REMARK SMILES IDX 11 1 12 2 13 3 14 4 15 5 16 6 30 7 9 8 10 9 8 10 7 12 6 13
REMARK SMILES IDX 31 14 5 15 32 16 37 17 4 18 3 19 38 20 2 21 39 22 1 23 33 24
REMARK SMILES IDX 34 25 35 26 36 27 17 28 18 30 19 31 29 32 20 33 22 34 21 35
REMARK SMILES IDX 23 36 24 37 28 38 25 39 27 40 26 41
REMARK H PARENT 8 11 17 29
ROOT
ATOM      1  C   UNL     1      27.460   1.868  52.838  1.00  0.00     0.042 A 
ATOM      2  C   UNL     1      27.169   1.291  54.083  1.00  0.00     0.014 A 
ATOM      3  C   UNL     1      27.869   0.178  54.550  1.00  0.00     0.006 A 
ATOM      4  C   UNL     1      28.822  -0.453  53.766  1.00  0.00    -0.027 A 
ATOM      5  C   UNL     1      29.572  -1.671  54.285  1.00  0.00     0.046 C 
ATOM      6  C   UNL     1      29.042   0.053  52.485  1.00  0.00     0.045 A 
ATOM      7  C   UNL     1      28.347   1.186  52.045  1.00  0.00     0.040 A 
ENDROOT
BRANCH   1   8
ATOM      8  C   UNL     1      26.689   2.961  52.214  1.00  0.00     0.255 C 
ATOM      9  O   UNL     1      26.835   3.084  51.022  1.00  0.00    -0.269 OA
ATOM     10  N   UNL     1      25.737   3.522  52.974  1.00  0.00    -0.322 N 
ATOM     11  H   UNL     1      25.663   3.196  53.948  1.00  0.00     0.170 HD
BRANCH  10  12
ATOM     12  C   UNL     1      24.842   4.504  52.569  1.00  0.00     0.044 A 
ATOM     13  C   UNL     1      24.104   5.253  53.519  1.00  0.00     0.052 A 
ATOM     14  C   UNL     1      24.558   4.695  51.199  1.00  0.00     0.039 A 
ATOM     15  C   UNL     1      23.208   6.249  53.120  1.00  0.00     0.049 A 
ATOM     16  C   UNL     1      23.662   5.726  50.795  1.00  0.00     0.060 A 
ATOM     17  C   UNL     1      22.978   6.461  51.765  1.00  0.00     0.039 A 
BRANCH  15  18
ATOM     18  N   UNL     1      22.504   7.025  54.054  1.00  0.00    -0.306 N 
ATOM     19  C   UNL     1      21.527   6.626  54.964  1.00  0.00     0.116 A 
ATOM     20  C   UNL     1      22.565   8.354  54.200  1.00  0.00     0.204 A 
ATOM     21  C   UNL     1      21.067   7.726  55.599  1.00  0.00     0.056 A 
ATOM     22  N   UNL     1      21.753   8.793  55.130  1.00  0.00    -0.242 NA
ATOM     23  C   UNL     1      20.020   7.804  56.683  1.00  0.00     0.068 C 
ENDBRANCH  15  18
BRANCH  16  24
ATOM     24  C   UNL     1      23.426   5.946  49.336  1.00  0.00     0.416 C 
ATOM     25  F   UNL     1      22.662   5.012  48.735  1.00  0.00    -0.166 F 
ATOM     26  F   UNL     1      22.723   7.053  49.128  1.00  0.00    -0.166 F 
ATOM     27  F   UNL     1      24.570   5.920  48.622  1.00  0.00    -0.166 F 
ENDBRANCH  16  24
ENDBRANCH  10  12
ENDBRANCH   1   8
BRANCH   6  28
ATOM     28  N   UNL     1      30.109  -0.464  51.739  1.00  0.00    -0.324 N 
ATOM     29  H   UNL     1      29.942  -1.194  51.032  1.00  0.00     0.170 HD
BRANCH  28  30
ATOM     30  C   UNL     1      31.400   0.020  51.961  1.00  0.00     0.227 A 
ATOM     31  N   UNL     1      32.534  -0.334  51.370  1.00  0.00    -0.221 NA
ATOM     32  N   UNL     1      31.336   0.907  52.987  1.00  0.00    -0.213 NA
ATOM     33  C   UNL     1      33.657   0.265  51.809  1.00  0.00     0.117 A 
ATOM     34  C   UNL     1      32.483   1.452  53.410  1.00  0.00     0.077 A 
ATOM     35  C   UNL     1      33.661   1.138  52.829  1.00  0.00     0.049 A 
BRANCH  34  36
ATOM     36  C   UNL     1      32.356   2.442  54.511  1.00  0.00     0.019 A 
ATOM     37  C   UNL     1      33.307   3.458  54.699  1.00  0.00     0.013 A 
ATOM     38  C   UNL     1      31.276   2.375  55.412  1.00  0.00     0.121 A 
ATOM     39  C   UNL     1      33.150   4.340  55.761  1.00  0.00     0.021 A 
ATOM     40  N   UNL     1      31.124   3.217  56.442  1.00  0.00    -0.264 NA
ATOM     41  C   UNL     1      32.033   4.195  56.583  1.00  0.00     0.111 A 
ENDBRANCH  34  36
ENDBRANCH  28  30
ENDBRANCH   6  28
TORSDOF 7
ENDMDL
MODEL 5
REMARK VINA RESULT:   -11.540      4.188     11.173
REMARK INTER + INTRA:         -14.813
REMARK INTER:                 -13.628
REMARK INTRA:                  -1.184
REMARK CONF_INDEPENDENT:        2.088
REMARK UNBOUND:                -1.184
REMARK SMILES Cc1cn(-c2cc(NC(=O)c3ccc(C)c(Nc4nccc(-c5cccnc5)n4)c3)cc(C(F)(F)F)c2)cn1
REMARK SMILES IDX 11 1 12 2 13 3 14 4 15 5 16 6 30 7 9 8 10 9 8 10 7 12 6 13
REMARK SMILES IDX 31 14 5 15 32 16 37 17 4 18 3 19 38 20 2 21 39 22 1 23 33 24
REMARK SMILES IDX 34 25 35 26 36 27 17 28 18 30 19 31 29 32 20 33 22 34 21 35
REMARK SMILES IDX 23 36 24 37 28 38 25 39 27 40 26 41
REMARK H PARENT 8 11 17 29
ROOT
ATOM      1  C   UNL     1      25.889   3.899  52.071  1.00  0.00     0.042 A 
ATOM      2  C   UNL     1      25.264   4.373  50.908  1.00  0.00     0.014 A 
ATOM      3  C   UNL     1      24.139   5.196  50.971  1.00  0.00     0.006 A 
ATOM      4  C   UNL     1      23.546   5.510  52.182  1.00  0.00    -0.027 A 
ATOM      5  C   UNL     1      22.314   6.404  52.235  1.00  0.00     0.046 C 
ATOM      6  C   UNL     1      24.100   4.958  53.336  1.00  0.00     0.045 A 
ATOM      7  C   UNL     1      25.244   4.155  53.254  1.00  0.00     0.040 A 
ENDROOT
BRANCH   1   8
ATOM      8  C   UNL     1      26.999   2.927  52.096  1.00  0.00     0.255 C 
ATOM      9  O   UNL     1      27.729   2.949  51.136  1.00  0.00    -0.269 OA
ATOM     10  N   UNL     1      27.223   2.315  53.269  1.00  0.00    -0.322 N 
ATOM     11  H   UNL     1      26.567   2.519  54.036  1.00  0.00     0.170 HD
BRANCH  10  12
ATOM     12  C   UNL     1      28.259   1.431  53.543  1.00  0.00     0.044 A 
ATOM     13  C   UNL     1      29.565   1.664  53.045  1.00  0.00     0.052 A 
ATOM     14  C   UNL     1      28.008   0.218  54.222  1.00  0.00     0.039 A 
ATOM     15  C   UNL     1      30.616   0.785  53.324  1.00  0.00     0.049 A 
ATOM     16  C   UNL     1      29.084  -0.664  54.524  1.00  0.00     0.060 A 
ATOM     17  C   UNL     1      30.363  -0.381  54.039  1.00  0.00     0.039 A 
BRANCH  15  18
ATOM     18  N   UNL     1      31.921   1.029  52.871  1.00  0.00    -0.306 N 
ATOM     19  C   UNL     1      32.557   0.543  51.730  1.00  0.00     0.116 A 
ATOM     20  C   UNL     1      32.874   1.722  53.506  1.00  0.00     0.204 A 
ATOM     21  C   UNL     1      33.838   0.972  51.745  1.00  0.00     0.056 A 
ATOM     22  N   UNL     1      34.007   1.736  52.848  1.00  0.00    -0.242 NA
ATOM     23  C   UNL     1      34.914   0.722  50.717  1.00  0.00     0.068 C 
ENDBRANCH  15  18
BRANCH  16  24
ATOM     24  C   UNL     1      28.799  -1.911  55.296  1.00  0.00     0.416 C 
ATOM     25  F   UNL     1      27.896  -2.737  54.732  1.00  0.00    -0.166 F 
ATOM     26  F   UNL     1      29.875  -2.686  55.364  1.00  0.00    -0.166 F 
ATOM     27  F   UNL     1      28.272  -1.653  56.511  1.00  0.00    -0.166 F 
ENDBRANCH  16  24
ENDBRANCH  10  12
ENDBRANCH   1   8
BRANCH   6  28
ATOM     28  N   UNL     1      23.620   5.390  54.579  1.00  0.00    -0.324 N 
ATOM     29  H   UNL     1      22.889   4.854  55.068  1.00  0.00     0.170 HD
BRANCH  28  30
ATOM     30  C   UNL     1      24.140   6.553  55.150  1.00  0.00     0.227 A 
ATOM     31  N   UNL     1      24.224   7.770  54.630  1.00  0.00    -0.221 NA
ATOM     32  N   UNL     1      24.650   6.222  56.365  1.00  0.00    -0.213 NA
ATOM     33  C   UNL     1      24.818   8.713  55.387  1.00  0.00     0.117 A 
ATOM     34  C   UNL     1      25.259   7.185  57.066  1.00  0.00     0.077 A 
ATOM     35  C   UNL     1      25.354   8.444  56.587  1.00  0.00     0.049 A 
BRANCH  34  36
ATOM     36  C   UNL     1      25.769   6.782  58.403  1.00  0.00     0.019 A 
ATOM     37  C   UNL     1      24.905   6.342  59.418  1.00  0.00     0.013 A 
ATOM     38  C   UNL     1      27.146   6.845  58.692  1.00  0.00     0.121 A 
ATOM     39  C   UNL     1      25.435   6.002  60.656  1.00  0.00     0.021 A 
ATOM     40  N   UNL     1      27.663   6.526  59.886  1.00  0.00    -0.264 NA
ATOM     41  C   UNL     1      26.816   6.085  60.830  1.00  0.00     0.111 A 
ENDBRANCH  34  36
ENDBRANCH  28  30
ENDBRANCH   6  28
TORSDOF 7
ENDMDL
MODEL 6
REMARK VINA RESULT:   -11.437      3.797     11.783
REMARK INTER + INTRA:         -14.694
REMARK INTER:                 -13.526
REMARK INTRA:                  -1.168
REMARK CONF_INDEPENDENT:        2.088
REMARK UNBOUND:                -1.168
REMARK SMILES Cc1cn(-c2cc(NC(=O)c3ccc(C)c(Nc4nccc(-c5cccnc5)n4)c3)cc(C(F)(F)F)c2)cn1
REMARK SMILES IDX 11 1 12 2 13 3 14 4 15 5 16 6 30 7 9 8 10 9 8 10 7 12 6 13
REMARK SMILES IDX 31 14 5 15 32 16 37 17 4 18 3 19 38 20 2 21 39 22 1 23 33 24
REMARK SMILES IDX 34 25 35 26 36 27 17 28 18 30 19 31 29 32 20 33 22 34 21 35
REMARK SMILES IDX 23 36 24 37 28 38 25 39 27 40 26 41
REMARK H PARENT 8 11 17 29
ROOT
ATOM      1  C   UNL     1      25.931   3.820  51.933  1.00  0.00     0.042 A 
ATOM      2  C   UNL     1      25.284   4.251  50.765  1.00  0.00     0.014 A 
ATOM      3  C   UNL     1      24.170   5.091  50.818  1.00  0.00     0.006 A 
ATOM      4  C   UNL     1      23.609   5.464  52.029  1.00  0.00    -0.027 A 
ATOM      5  C   UNL     1      22.390   6.374  52.072  1.00  0.00     0.046 C 
ATOM      6  C   UNL     1      24.185   4.956  53.192  1.00  0.00     0.045 A 
ATOM      7  C   UNL     1      25.318   4.135  53.118  1.00  0.00     0.040 A 
ENDROOT
BRANCH   1   8
ATOM      8  C   UNL     1      27.030   2.836  51.974  1.00  0.00     0.255 C 
ATOM      9  O   UNL     1      27.713   2.780  50.981  1.00  0.00    -0.269 OA
ATOM     10  N   UNL     1      27.303   2.304  53.175  1.00  0.00    -0.322 N 
ATOM     11  H   UNL     1      26.687   2.571  53.956  1.00  0.00     0.170 HD
BRANCH  10  12
ATOM     12  C   UNL     1      28.341   1.427  53.462  1.00  0.00     0.044 A 
ATOM     13  C   UNL     1      29.650   1.663  52.972  1.00  0.00     0.052 A 
ATOM     14  C   UNL     1      28.090   0.217  54.146  1.00  0.00     0.039 A 
ATOM     15  C   UNL     1      30.702   0.791  53.263  1.00  0.00     0.049 A 
ATOM     16  C   UNL     1      29.168  -0.659  54.461  1.00  0.00     0.060 A 
ATOM     17  C   UNL     1      30.449  -0.372  53.984  1.00  0.00     0.039 A 
BRANCH  15  18
ATOM     18  N   UNL     1      32.010   1.038  52.818  1.00  0.00    -0.306 N 
ATOM     19  C   UNL     1      32.645   0.576  51.666  1.00  0.00     0.116 A 
ATOM     20  C   UNL     1      32.965   1.709  53.472  1.00  0.00     0.204 A 
ATOM     21  C   UNL     1      33.928   0.997  51.694  1.00  0.00     0.056 A 
ATOM     22  N   UNL     1      34.100   1.732  52.816  1.00  0.00    -0.242 NA
ATOM     23  C   UNL     1      35.004   0.767  50.661  1.00  0.00     0.068 C 
ENDBRANCH  15  18
BRANCH  16  24
ATOM     24  C   UNL     1      28.884  -1.902  55.239  1.00  0.00     0.416 C 
ATOM     25  F   UNL     1      28.048  -2.772  54.636  1.00  0.00    -0.166 F 
ATOM     26  F   UNL     1      29.982  -2.634  55.387  1.00  0.00    -0.166 F 
ATOM     27  F   UNL     1      28.273  -1.644  56.414  1.00  0.00    -0.166 F 
ENDBRANCH  16  24
ENDBRANCH  10  12
ENDBRANCH   1   8
BRANCH   6  28
ATOM     28  N   UNL     1      23.740   5.447  54.426  1.00  0.00    -0.324 N 
ATOM     29  H   UNL     1      22.768   5.288  54.728  1.00  0.00     0.170 HD
BRANCH  28  30
ATOM     30  C   UNL     1      24.625   6.153  55.244  1.00  0.00     0.227 A 
ATOM     31  N   UNL     1      25.939   6.293  55.123  1.00  0.00    -0.221 NA
ATOM     32  N   UNL     1      23.914   6.644  56.292  1.00  0.00    -0.213 NA
ATOM     33  C   UNL     1      26.563   6.998  56.085  1.00  0.00     0.117 A 
ATOM     34  C   UNL     1      24.584   7.310  57.240  1.00  0.00     0.077 A 
ATOM     35  C   UNL     1      25.918   7.495  57.152  1.00  0.00     0.049 A 
BRANCH  34  36
ATOM     36  C   UNL     1      23.756   7.857  58.346  1.00  0.00     0.019 A 
ATOM     37  C   UNL     1      22.655   7.152  58.859  1.00  0.00     0.013 A 
ATOM     38  C   UNL     1      24.050   9.117  58.904  1.00  0.00     0.121 A 
ATOM     39  C   UNL     1      21.903   7.724  59.877  1.00  0.00     0.021 A 
ATOM     40  N   UNL     1      23.323   9.677  59.879  1.00  0.00    -0.264 NA
ATOM     41  C   UNL     1      22.292   8.970  60.369  1.00  0.00     0.111 A 
ENDBRANCH  34  36
ENDBRANCH  28  30
ENDBRANCH   6  28
TORSDOF 7
ENDMDL
MODEL 7
REMARK VINA RESULT:   -11.160      1.794      2.701
REMARK INTER + INTRA:         -14.590
REMARK INTER:                 -13.248
REMARK INTRA:                  -1.342
REMARK CONF_INDEPENDENT:        2.088
REMARK UNBOUND:                -1.342
REMARK SMILES Cc1cn(-c2cc(NC(=O)c3ccc(C)c(Nc4nccc(-c5cccnc5)n4)c3)cc(C(F)(F)F)c2)cn1
REMARK SMILES IDX 11 1 12 2 13 3 14 4 15 5 16 6 30 7 9 8 10 9 8 10 7 12 6 13
REMARK SMILES IDX 31 14 5 15 32 16 37 17 4 18 3 19 38 20 2 21 39 22 1 23 33 24
REMARK SMILES IDX 34 25 35 26 36 27 17 28 18 30 19 31 29 32 20 33 22 34 21 35
REMARK SMILES IDX 23 36 24 37 28 38 25 39 27 40 26 41
REMARK H PARENT 8 11 17 29
ROOT
ATOM      1  C   UNL     1      27.132   2.373  52.594  1.00  0.00     0.042 A 
ATOM      2  C   UNL     1      27.150   0.982  52.412  1.00  0.00     0.014 A 
ATOM      3  C   UNL     1      27.939   0.155  53.211  1.00  0.00     0.006 A 
ATOM      4  C   UNL     1      28.799   0.681  54.161  1.00  0.00    -0.027 A 
ATOM      5  C   UNL     1      29.660  -0.233  55.022  1.00  0.00     0.046 C 
ATOM      6  C   UNL     1      28.863   2.069  54.276  1.00  0.00     0.045 A 
ATOM      7  C   UNL     1      28.044   2.881  53.481  1.00  0.00     0.040 A 
ENDROOT
BRANCH   1   8
ATOM      8  C   UNL     1      26.429   3.330  51.716  1.00  0.00     0.255 C 
ATOM      9  O   UNL     1      26.666   3.222  50.537  1.00  0.00    -0.269 OA
ATOM     10  N   UNL     1      25.434   4.030  52.281  1.00  0.00    -0.322 N 
ATOM     11  H   UNL     1      25.283   3.896  53.291  1.00  0.00     0.170 HD
BRANCH  10  12
ATOM     12  C   UNL     1      24.589   4.919  51.628  1.00  0.00     0.044 A 
ATOM     13  C   UNL     1      23.867   5.900  52.352  1.00  0.00     0.052 A 
ATOM     14  C   UNL     1      24.339   4.788  50.245  1.00  0.00     0.039 A 
ATOM     15  C   UNL     1      23.022   6.805  51.704  1.00  0.00     0.049 A 
ATOM     16  C   UNL     1      23.496   5.725  49.583  1.00  0.00     0.060 A 
ATOM     17  C   UNL     1      22.826   6.696  50.331  1.00  0.00     0.039 A 
BRANCH  15  18
ATOM     18  N   UNL     1      22.335   7.806  52.406  1.00  0.00    -0.306 N 
ATOM     19  C   UNL     1      21.492   7.681  53.509  1.00  0.00     0.116 A 
ATOM     20  C   UNL     1      22.276   9.106  52.095  1.00  0.00     0.204 A 
ATOM     21  C   UNL     1      20.986   8.901  53.794  1.00  0.00     0.056 A 
ATOM     22  N   UNL     1      21.514   9.784  52.919  1.00  0.00    -0.242 NA
ATOM     23  C   UNL     1      20.043   9.277  54.911  1.00  0.00     0.068 C 
ENDBRANCH  15  18
BRANCH  16  24
ATOM     24  C   UNL     1      23.297   5.599  48.107  1.00  0.00     0.416 C 
ATOM     25  F   UNL     1      24.431   5.540  47.382  1.00  0.00    -0.166 F 
ATOM     26  F   UNL     1      22.715   4.446  47.801  1.00  0.00    -0.166 F 
ATOM     27  F   UNL     1      22.646   6.660  47.585  1.00  0.00    -0.166 F 
ENDBRANCH  16  24
ENDBRANCH  10  12
ENDBRANCH   1   8
BRANCH   6  28
ATOM     28  N   UNL     1      29.599   2.617  55.335  1.00  0.00    -0.324 N 
ATOM     29  H   UNL     1      29.136   2.848  56.225  1.00  0.00     0.170 HD
BRANCH  28  30
ATOM     30  C   UNL     1      30.967   2.849  55.173  1.00  0.00     0.227 A 
ATOM     31  N   UNL     1      31.732   3.761  55.759  1.00  0.00    -0.221 NA
ATOM     32  N   UNL     1      31.417   2.002  54.212  1.00  0.00    -0.213 NA
ATOM     33  C   UNL     1      33.025   3.797  55.386  1.00  0.00     0.117 A 
ATOM     34  C   UNL     1      32.702   2.096  53.852  1.00  0.00     0.077 A 
ATOM     35  C   UNL     1      33.525   2.997  54.431  1.00  0.00     0.049 A 
BRANCH  34  36
ATOM     36  C   UNL     1      33.154   1.125  52.822  1.00  0.00     0.019 A 
ATOM     37  C   UNL     1      34.401   1.249  52.190  1.00  0.00     0.013 A 
ATOM     38  C   UNL     1      32.325   0.052  52.439  1.00  0.00     0.121 A 
ATOM     39  C   UNL     1      34.760   0.326  51.216  1.00  0.00     0.021 A 
ATOM     40  N   UNL     1      32.662  -0.837  51.495  1.00  0.00    -0.264 NA
ATOM     41  C   UNL     1      33.872  -0.709  50.926  1.00  0.00     0.111 A 
ENDBRANCH  34  36
ENDBRANCH  28  30
ENDBRANCH   6  28
TORSDOF 7
ENDMDL
MODEL 8
REMARK VINA RESULT:   -11.146      3.705     11.946
REMARK INTER + INTRA:         -14.495
REMARK INTER:                 -13.234
REMARK INTRA:                  -1.261
REMARK CONF_INDEPENDENT:        2.088
REMARK UNBOUND:                -1.261
REMARK SMILES Cc1cn(-c2cc(NC(=O)c3ccc(C)c(Nc4nccc(-c5cccnc5)n4)c3)cc(C(F)(F)F)c2)cn1
REMARK SMILES IDX 11 1 12 2 13 3 14 4 15 5 16 6 30 7 9 8 10 9 8 10 7 12 6 13
REMARK SMILES IDX 31 14 5 15 32 16 37 17 4 18 3 19 38 20 2 21 39 22 1 23 33 24
REMARK SMILES IDX 34 25 35 26 36 27 17 28 18 30 19 31 29 32 20 33 22 34 21 35
REMARK SMILES IDX 23 36 24 37 28 38 25 39 27 40 26 41
REMARK H PARENT 8 11 17 29
ROOT
ATOM      1  C   UNL     1      26.161   3.367  51.589  1.00  0.00     0.042 A 
ATOM      2  C   UNL     1      25.491   3.683  50.397  1.00  0.00     0.014 A 
ATOM      3  C   UNL     1      24.256   4.333  50.408  1.00  0.00     0.006 A 
ATOM      4  C   UNL     1      23.604   4.617  51.597  1.00  0.00    -0.027 A 
ATOM      5  C   UNL     1      22.254   5.319  51.594  1.00  0.00     0.046 C 
ATOM      6  C   UNL     1      24.216   4.212  52.782  1.00  0.00     0.045 A 
ATOM      7  C   UNL     1      25.467   3.583  52.751  1.00  0.00     0.040 A 
ENDROOT
BRANCH   1   8
ATOM      8  C   UNL     1      27.401   2.572  51.674  1.00  0.00     0.255 C 
ATOM      9  O   UNL     1      28.269   2.880  50.893  1.00  0.00    -0.269 OA
ATOM     10  N   UNL     1      27.526   1.782  52.751  1.00  0.00    -0.322 N 
ATOM     11  H   UNL     1      26.724   1.741  53.396  1.00  0.00     0.170 HD
BRANCH  10  12
ATOM     12  C   UNL     1      28.637   1.015  53.076  1.00  0.00     0.044 A 
ATOM     13  C   UNL     1      29.916   1.328  52.552  1.00  0.00     0.052 A 
ATOM     14  C   UNL     1      28.497  -0.166  53.838  1.00  0.00     0.039 A 
ATOM     15  C   UNL     1      31.042   0.568  52.881  1.00  0.00     0.049 A 
ATOM     16  C   UNL     1      29.648  -0.926  54.191  1.00  0.00     0.060 A 
ATOM     17  C   UNL     1      30.895  -0.564  53.677  1.00  0.00     0.039 A 
BRANCH  15  18
ATOM     18  N   UNL     1      32.319   0.894  52.401  1.00  0.00    -0.306 N 
ATOM     19  C   UNL     1      32.952   0.469  51.234  1.00  0.00     0.116 A 
ATOM     20  C   UNL     1      33.247   1.628  53.027  1.00  0.00     0.204 A 
ATOM     21  C   UNL     1      34.206   0.970  51.227  1.00  0.00     0.056 A 
ATOM     22  N   UNL     1      34.360   1.719  52.342  1.00  0.00    -0.242 NA
ATOM     23  C   UNL     1      35.267   0.803  50.167  1.00  0.00     0.068 C 
ENDBRANCH  15  18
BRANCH  16  24
ATOM     24  C   UNL     1      29.478  -2.137  55.049  1.00  0.00     0.416 C 
ATOM     25  F   UNL     1      28.852  -3.173  54.456  1.00  0.00    -0.166 F 
ATOM     26  F   UNL     1      30.653  -2.670  55.362  1.00  0.00    -0.166 F 
ATOM     27  F   UNL     1      28.717  -1.892  56.136  1.00  0.00    -0.166 F 
ENDBRANCH  16  24
ENDBRANCH  10  12
ENDBRANCH   1   8
BRANCH   6  28
ATOM     28  N   UNL     1      23.658   4.630  53.998  1.00  0.00    -0.324 N 
ATOM     29  H   UNL     1      23.009   4.017  54.509  1.00  0.00     0.170 HD
BRANCH  28  30
ATOM     30  C   UNL     1      23.991   5.886  54.510  1.00  0.00     0.227 A 
ATOM     31  N   UNL     1      25.002   6.222  55.300  1.00  0.00    -0.221 NA
ATOM     32  N   UNL     1      23.026   6.758  54.120  1.00  0.00    -0.213 NA
ATOM     33  C   UNL     1      25.067   7.510  55.687  1.00  0.00     0.117 A 
ATOM     34  C   UNL     1      23.115   8.020  54.555  1.00  0.00     0.077 A 
ATOM     35  C   UNL     1      24.135   8.415  55.347  1.00  0.00     0.049 A 
BRANCH  34  36
ATOM     36  C   UNL     1      22.055   8.943  54.072  1.00  0.00     0.019 A 
ATOM     37  C   UNL     1      20.728   8.516  53.907  1.00  0.00     0.013 A 
ATOM     38  C   UNL     1      22.362  10.280  53.750  1.00  0.00     0.121 A 
ATOM     39  C   UNL     1      19.784   9.416  53.429  1.00  0.00     0.021 A 
ATOM     40  N   UNL     1      21.459  11.149  53.281  1.00  0.00    -0.264 NA
ATOM     41  C   UNL     1      20.192  10.722  53.157  1.00  0.00     0.111 A 
ENDBRANCH  34  36
ENDBRANCH  28  30
ENDBRANCH   6  28
TORSDOF 7
ENDMDL
MODEL 9
REMARK VINA RESULT:   -10.982      3.787     11.726
REMARK INTER + INTRA:         -14.194
REMARK INTER:                 -13.070
REMARK INTRA:                  -1.125
REMARK CONF_INDEPENDENT:        2.088
REMARK UNBOUND:                -1.125
REMARK SMILES Cc1cn(-c2cc(NC(=O)c3ccc(C)c(Nc4nccc(-c5cccnc5)n4)c3)cc(C(F)(F)F)c2)cn1
REMARK SMILES IDX 11 1 12 2 13 3 14 4 15 5 16 6 30 7 9 8 10 9 8 10 7 12 6 13
REMARK SMILES IDX 31 14 5 15 32 16 37 17 4 18 3 19 38 20 2 21 39 22 1 23 33 24
REMARK SMILES IDX 34 25 35 26 36 27 17 28 18 30 19 31 29 32 20 33 22 34 21 35
REMARK SMILES IDX 23 36 24 37 28 38 25 39 27 40 26 41
REMARK H PARENT 8 11 17 29
ROOT
ATOM      1  C   UNL     1      25.653   3.530  51.786  1.00  0.00     0.042 A 
ATOM      2  C   UNL     1      24.787   3.416  50.687  1.00  0.00     0.014 A 
ATOM      3  C   UNL     1      23.461   3.845  50.760  1.00  0.00     0.006 A 
ATOM      4  C   UNL     1      22.924   4.322  51.944  1.00  0.00    -0.027 A 
ATOM      5  C   UNL     1      21.474   4.779  52.011  1.00  0.00     0.046 C 
ATOM      6  C   UNL     1      23.750   4.341  53.067  1.00  0.00     0.045 A 
ATOM      7  C   UNL     1      25.086   3.931  52.967  1.00  0.00     0.040 A 
ENDROOT
BRANCH   1   8
ATOM      8  C   UNL     1      27.026   2.990  51.837  1.00  0.00     0.255 C 
ATOM      9  O   UNL     1      27.569   2.852  50.768  1.00  0.00    -0.269 OA
ATOM     10  N   UNL     1      27.601   2.951  53.048  1.00  0.00    -0.322 N 
ATOM     11  H   UNL     1      27.022   3.236  53.850  1.00  0.00     0.170 HD
BRANCH  10  12
ATOM     12  C   UNL     1      28.907   2.561  53.319  1.00  0.00     0.044 A 
ATOM     13  C   UNL     1      29.547   1.569  52.536  1.00  0.00     0.052 A 
ATOM     14  C   UNL     1      29.583   3.057  54.455  1.00  0.00     0.039 A 
ATOM     15  C   UNL     1      30.863   1.177  52.794  1.00  0.00     0.049 A 
ATOM     16  C   UNL     1      30.932   2.673  54.704  1.00  0.00     0.060 A 
ATOM     17  C   UNL     1      31.536   1.714  53.888  1.00  0.00     0.039 A 
BRANCH  15  18
ATOM     18  N   UNL     1      31.520   0.226  51.999  1.00  0.00    -0.306 N 
ATOM     19  C   UNL     1      32.883  -0.054  51.915  1.00  0.00     0.116 A 
ATOM     20  C   UNL     1      30.966  -0.561  51.069  1.00  0.00     0.204 A 
ATOM     21  C   UNL     1      33.063  -0.986  50.954  1.00  0.00     0.056 A 
ATOM     22  N   UNL     1      31.849  -1.314  50.459  1.00  0.00    -0.242 NA
ATOM     23  C   UNL     1      34.358  -1.623  50.509  1.00  0.00     0.068 C 
ENDBRANCH  15  18
BRANCH  16  24
ATOM     24  C   UNL     1      31.644   3.260  55.879  1.00  0.00     0.416 C 
ATOM     25  F   UNL     1      31.056   4.347  56.417  1.00  0.00    -0.166 F 
ATOM     26  F   UNL     1      31.649   2.415  56.904  1.00  0.00    -0.166 F 
ATOM     27  F   UNL     1      32.881   3.696  55.564  1.00  0.00    -0.166 F 
ENDBRANCH  16  24
ENDBRANCH  10  12
ENDBRANCH   1   8
BRANCH   6  28
ATOM     28  N   UNL     1      23.282   4.968  54.229  1.00  0.00    -0.324 N 
ATOM     29  H   UNL     1      22.328   4.785  54.570  1.00  0.00     0.170 HD
BRANCH  28  30
ATOM     30  C   UNL     1      24.120   5.845  54.921  1.00  0.00     0.227 A 
ATOM     31  N   UNL     1      25.360   6.217  54.629  1.00  0.00    -0.221 NA
ATOM     32  N   UNL     1      23.471   6.228  56.051  1.00  0.00    -0.213 NA
ATOM     33  C   UNL     1      25.963   7.050  55.499  1.00  0.00     0.117 A 
ATOM     34  C   UNL     1      24.124   7.030  56.901  1.00  0.00     0.077 A 
ATOM     35  C   UNL     1      25.380   7.451  56.639  1.00  0.00     0.049 A 
BRANCH  34  36
ATOM     36  C   UNL     1      23.359   7.449  58.104  1.00  0.00     0.019 A 
ATOM     37  C   UNL     1      24.002   7.775  59.309  1.00  0.00     0.013 A 
ATOM     38  C   UNL     1      21.952   7.516  58.070  1.00  0.00     0.121 A 
ATOM     39  C   UNL     1      23.234   8.135  60.409  1.00  0.00     0.021 A 
ATOM     40  N   UNL     1      21.206   7.855  59.129  1.00  0.00    -0.264 NA
ATOM     41  C   UNL     1      21.849   8.186  60.261  1.00  0.00     0.111 A 
ENDBRANCH  34  36
ENDBRANCH  28  30
ENDBRANCH   6  28
TORSDOF 7
ENDMDL
MODEL 10
REMARK VINA RESULT:   -10.874      8.323     15.241
REMARK INTER + INTRA:         -14.275
REMARK INTER:                 -12.962
REMARK INTRA:                  -1.313
REMARK CONF_INDEPENDENT:        2.088
REMARK UNBOUND:                -1.313
REMARK SMILES Cc1cn(-c2cc(NC(=O)c3ccc(C)c(Nc4nccc(-c5cccnc5)n4)c3)cc(C(F)(F)F)c2)cn1
REMARK SMILES IDX 11 1 12 2 13 3 14 4 15 5 16 6 30 7 9 8 10 9 8 10 7 12 6 13
REMARK SMILES IDX 31 14 5 15 32 16 37 17 4 18 3 19 38 20 2 21 39 22 1 23 33 24
REMARK SMILES IDX 34 25 35 26 36 27 17 28 18 30 19 31 29 32 20 33 22 34 21 35
REMARK SMILES IDX 23 36 24 37 28 38 25 39 27 40 26 41
REMARK H PARENT 8 11 17 29
ROOT
ATOM      1  C   UNL     1      36.033  -1.617  49.274  1.00  0.00     0.042 A 
ATOM      2  C   UNL     1      35.266  -2.786  49.150  1.00  0.00     0.014 A 
ATOM      3  C   UNL     1      33.890  -2.781  49.386  1.00  0.00     0.006 A 
ATOM      4  C   UNL     1      33.242  -1.641  49.834  1.00  0.00    -0.027 A 
ATOM      5  C   UNL     1      31.743  -1.652  50.095  1.00  0.00     0.046 C 
ATOM      6  C   UNL     1      34.016  -0.504  50.059  1.00  0.00     0.045 A 
ATOM      7  C   UNL     1      35.391  -0.522  49.792  1.00  0.00     0.040 A 
ENDROOT
BRANCH   1   8
ATOM      8  C   UNL     1      37.504  -1.559  49.168  1.00  0.00     0.255 C 
ATOM      9  O   UNL     1      38.078  -1.146  50.146  1.00  0.00    -0.269 OA
ATOM     10  N   UNL     1      38.047  -2.194  48.119  1.00  0.00    -0.322 N 
ATOM     11  H   UNL     1      37.397  -2.613  47.439  1.00  0.00     0.170 HD
BRANCH  10  12
ATOM     12  C   UNL     1      39.405  -2.339  47.867  1.00  0.00     0.044 A 
ATOM     13  C   UNL     1      39.946  -2.028  46.595  1.00  0.00     0.052 A 
ATOM     14  C   UNL     1      40.258  -2.914  48.835  1.00  0.00     0.039 A 
ATOM     15  C   UNL     1      41.313  -2.161  46.334  1.00  0.00     0.049 A 
ATOM     16  C   UNL     1      41.654  -3.027  48.575  1.00  0.00     0.060 A 
ATOM     17  C   UNL     1      42.150  -2.680  47.316  1.00  0.00     0.039 A 
BRANCH  15  18
ATOM     18  N   UNL     1      41.864  -1.815  45.091  1.00  0.00    -0.306 N 
ATOM     19  C   UNL     1      42.150  -0.550  44.581  1.00  0.00     0.116 A 
ATOM     20  C   UNL     1      42.149  -2.647  44.082  1.00  0.00     0.204 A 
ATOM     21  C   UNL     1      42.590  -0.696  43.312  1.00  0.00     0.056 A 
ATOM     22  N   UNL     1      42.613  -2.018  43.030  1.00  0.00    -0.242 NA
ATOM     23  C   UNL     1      43.041   0.381  42.355  1.00  0.00     0.068 C 
ENDBRANCH  15  18
BRANCH  16  24
ATOM     24  C   UNL     1      42.543  -3.583  49.640  1.00  0.00     0.416 C 
ATOM     25  F   UNL     1      43.774  -3.038  49.696  1.00  0.00    -0.166 F 
ATOM     26  F   UNL     1      42.066  -3.311  50.849  1.00  0.00    -0.166 F 
ATOM     27  F   UNL     1      42.790  -4.898  49.467  1.00  0.00    -0.166 F 
ENDBRANCH  16  24
ENDBRANCH  10  12
ENDBRANCH   1   8
BRANCH   6  28
ATOM     28  N   UNL     1      33.363   0.700  50.353  1.00  0.00    -0.324 N 
ATOM     29  H   UNL     1      33.017   1.302  49.593  1.00  0.00     0.170 HD
BRANCH  28  30
ATOM     30  C   UNL     1      33.186   1.077  51.686  1.00  0.00     0.227 A 
ATOM     31  N   UNL     1      33.883   1.947  52.405  1.00  0.00    -0.221 NA
ATOM     32  N   UNL     1      32.180   0.321  52.197  1.00  0.00    -0.213 NA
ATOM     33  C   UNL     1      33.525   2.092  53.695  1.00  0.00     0.117 A 
ATOM     34  C   UNL     1      31.881   0.478  53.492  1.00  0.00     0.077 A 
ATOM     35  C   UNL     1      32.550   1.364  54.261  1.00  0.00     0.049 A 
BRANCH  34  36
ATOM     36  C   UNL     1      30.750  -0.346  53.994  1.00  0.00     0.019 A 
ATOM     37  C   UNL     1      29.665   0.231  54.673  1.00  0.00     0.013 A 
ATOM     38  C   UNL     1      30.747  -1.743  53.813  1.00  0.00     0.121 A 
ATOM     39  C   UNL     1      28.648  -0.591  55.142  1.00  0.00     0.021 A 
ATOM     40  N   UNL     1      29.774  -2.541  54.271  1.00  0.00    -0.264 NA
ATOM     41  C   UNL     1      28.736  -1.960  54.893  1.00  0.00     0.111 A 
ENDBRANCH  34  36
ENDBRANCH  28  30
ENDBRANCH   6  28
TORSDOF 7
ENDMDL
MODEL 11
REMARK VINA RESULT:   -10.795      4.683     13.520
REMARK INTER + INTRA:         -14.212
REMARK INTER:                 -12.884
REMARK INTRA:                  -1.328
REMARK CONF_INDEPENDENT:        2.088
REMARK UNBOUND:                -1.328
REMARK SMILES Cc1cn(-c2cc(NC(=O)c3ccc(C)c(Nc4nccc(-c5cccnc5)n4)c3)cc(C(F)(F)F)c2)cn1
REMARK SMILES IDX 11 1 12 2 13 3 14 4 15 5 16 6 30 7 9 8 10 9 8 10 7 12 6 13
REMARK SMILES IDX 31 14 5 15 32 16 37 17 4 18 3 19 38 20 2 21 39 22 1 23 33 24
REMARK SMILES IDX 34 25 35 26 36 27 17 28 18 30 19 31 29 32 20 33 22 34 21 35
REMARK SMILES IDX 23 36 24 37 28 38 25 39 27 40 26 41
REMARK H PARENT 8 11 17 29
ROOT
ATOM      1  C   UNL     1      21.089   7.245  54.288  1.00  0.00     0.042 A 
ATOM      2  C   UNL     1      20.945   7.399  55.675  1.00  0.00     0.014 A 
ATOM      3  C   UNL     1      20.216   8.459  56.217  1.00  0.00     0.006 A 
ATOM      4  C   UNL     1      19.677   9.447  55.409  1.00  0.00    -0.027 A 
ATOM      5  C   UNL     1      18.891  10.602  56.014  1.00  0.00     0.046 C 
ATOM      6  C   UNL     1      19.905   9.356  54.037  1.00  0.00     0.045 A 
ATOM      7  C   UNL     1      20.617   8.271  53.511  1.00  0.00     0.040 A 
ENDROOT
BRANCH   1   8
ATOM      8  C   UNL     1      21.943   6.232  53.636  1.00  0.00     0.255 C 
ATOM      9  O   UNL     1      21.888   5.125  54.112  1.00  0.00    -0.269 OA
ATOM     10  N   UNL     1      22.479   6.581  52.457  1.00  0.00    -0.322 N 
ATOM     11  H   UNL     1      22.309   7.544  52.133  1.00  0.00     0.170 HD
BRANCH  10  12
ATOM     12  C   UNL     1      23.242   5.763  51.633  1.00  0.00     0.044 A 
ATOM     13  C   UNL     1      24.341   5.034  52.150  1.00  0.00     0.052 A 
ATOM     14  C   UNL     1      23.013   5.733  50.240  1.00  0.00     0.039 A 
ATOM     15  C   UNL     1      25.109   4.200  51.332  1.00  0.00     0.049 A 
ATOM     16  C   UNL     1      23.782   4.866  49.412  1.00  0.00     0.060 A 
ATOM     17  C   UNL     1      24.838   4.141  49.968  1.00  0.00     0.039 A 
BRANCH  15  18
ATOM     18  N   UNL     1      26.173   3.442  51.842  1.00  0.00    -0.306 N 
ATOM     19  C   UNL     1      26.527   3.212  53.170  1.00  0.00     0.116 A 
ATOM     20  C   UNL     1      27.142   2.845  51.137  1.00  0.00     0.204 A 
ATOM     21  C   UNL     1      27.672   2.495  53.184  1.00  0.00     0.056 A 
ATOM     22  N   UNL     1      28.022   2.248  51.902  1.00  0.00    -0.242 NA
ATOM     23  C   UNL     1      28.435   1.987  54.383  1.00  0.00     0.068 C 
ENDBRANCH  15  18
BRANCH  16  24
ATOM     24  C   UNL     1      23.479   4.809  47.950  1.00  0.00     0.416 C 
ATOM     25  F   UNL     1      24.408   5.372  47.153  1.00  0.00    -0.166 F 
ATOM     26  F   UNL     1      23.466   3.555  47.514  1.00  0.00    -0.166 F 
ATOM     27  F   UNL     1      22.350   5.476  47.634  1.00  0.00    -0.166 F 
ENDBRANCH  16  24
ENDBRANCH  10  12
ENDBRANCH   1   8
BRANCH   6  28
ATOM     28  N   UNL     1      19.236  10.248  53.189  1.00  0.00    -0.324 N 
ATOM     29  H   UNL     1      19.766  10.827  52.522  1.00  0.00     0.170 HD
BRANCH  28  30
ATOM     30  C   UNL     1      17.845  10.346  53.254  1.00  0.00     0.227 A 
ATOM     31  N   UNL     1      17.084  11.433  53.231  1.00  0.00    -0.221 NA
ATOM     32  N   UNL     1      17.352   9.093  53.434  1.00  0.00    -0.213 NA
ATOM     33  C   UNL     1      15.757  11.246  53.356  1.00  0.00     0.117 A 
ATOM     34  C   UNL     1      16.029   8.961  53.585  1.00  0.00     0.077 A 
ATOM     35  C   UNL     1      15.212  10.035  53.551  1.00  0.00     0.049 A 
BRANCH  34  36
ATOM     36  C   UNL     1      15.536   7.567  53.742  1.00  0.00     0.019 A 
ATOM     37  C   UNL     1      14.808   7.168  54.875  1.00  0.00     0.013 A 
ATOM     38  C   UNL     1      15.804   6.598  52.756  1.00  0.00     0.121 A 
ATOM     39  C   UNL     1      14.395   5.846  54.980  1.00  0.00     0.021 A 
ATOM     40  N   UNL     1      15.415   5.321  52.855  1.00  0.00    -0.264 NA
ATOM     41  C   UNL     1      14.698   4.972  53.936  1.00  0.00     0.111 A 
ENDBRANCH  34  36
ENDBRANCH  28  30
ENDBRANCH   6  28
TORSDOF 7
ENDMDL
MODEL 12
REMARK VINA RESULT:   -10.693      3.650     12.151
REMARK INTER + INTRA:         -14.086
REMARK INTER:                 -12.781
REMARK INTRA:                  -1.305
REMARK CONF_INDEPENDENT:        2.088
REMARK UNBOUND:                -1.305
REMARK SMILES Cc1cn(-c2cc(NC(=O)c3ccc(C)c(Nc4nccc(-c5cccnc5)n4)c3)cc(C(F)(F)F)c2)cn1
REMARK SMILES IDX 11 1 12 2 13 3 14 4 15 5 16 6 30 7 9 8 10 9 8 10 7 12 6 13
REMARK SMILES IDX 31 14 5 15 32 16 37 17 4 18 3 19 38 20 2 21 39 22 1 23 33 24
REMARK SMILES IDX 34 25 35 26 36 27 17 28 18 30 19 31 29 32 20 33 22 34 21 35
REMARK SMILES IDX 23 36 24 37 28 38 25 39 27 40 26 41
REMARK H PARENT 8 11 17 29
ROOT
ATOM      1  C   UNL     1      25.673   3.663  51.889  1.00  0.00     0.042 A 
ATOM      2  C   UNL     1      24.843   3.610  50.759  1.00  0.00     0.014 A 
ATOM      3  C   UNL     1      23.504   4.000  50.822  1.00  0.00     0.006 A 
ATOM      4  C   UNL     1      22.920   4.375  52.022  1.00  0.00    -0.027 A 
ATOM      5  C   UNL     1      21.457   4.790  52.076  1.00  0.00     0.046 C 
ATOM      6  C   UNL     1      23.713   4.330  53.167  1.00  0.00     0.045 A 
ATOM      7  C   UNL     1      25.061   3.960  53.079  1.00  0.00     0.040 A 
ENDROOT
BRANCH   1   8
ATOM      8  C   UNL     1      27.057   3.153  51.943  1.00  0.00     0.255 C 
ATOM      9  O   UNL     1      27.645   3.137  50.889  1.00  0.00    -0.269 OA
ATOM     10  N   UNL     1      27.586   3.007  53.167  1.00  0.00    -0.322 N 
ATOM     11  H   UNL     1      26.969   3.196  53.969  1.00  0.00     0.170 HD
BRANCH  10  12
ATOM     12  C   UNL     1      28.891   2.623  53.452  1.00  0.00     0.044 A 
ATOM     13  C   UNL     1      29.543   1.633  52.676  1.00  0.00     0.052 A 
ATOM     14  C   UNL     1      29.554   3.124  54.593  1.00  0.00     0.039 A 
ATOM     15  C   UNL     1      30.859   1.248  52.948  1.00  0.00     0.049 A 
ATOM     16  C   UNL     1      30.902   2.747  54.856  1.00  0.00     0.060 A 
ATOM     17  C   UNL     1      31.518   1.789  54.047  1.00  0.00     0.039 A 
BRANCH  15  18
ATOM     18  N   UNL     1      31.528   0.299  52.160  1.00  0.00    -0.306 N 
ATOM     19  C   UNL     1      31.152  -0.242  50.932  1.00  0.00     0.116 A 
ATOM     20  C   UNL     1      32.646  -0.363  52.481  1.00  0.00     0.204 A 
ATOM     21  C   UNL     1      32.059  -1.182  50.589  1.00  0.00     0.056 A 
ATOM     22  N   UNL     1      33.003  -1.220  51.555  1.00  0.00    -0.242 NA
ATOM     23  C   UNL     1      32.092  -2.029  49.340  1.00  0.00     0.068 C 
ENDBRANCH  15  18
BRANCH  16  24
ATOM     24  C   UNL     1      31.599   3.339  56.037  1.00  0.00     0.416 C 
ATOM     25  F   UNL     1      30.970   4.387  56.604  1.00  0.00    -0.166 F 
ATOM     26  F   UNL     1      31.653   2.473  57.043  1.00  0.00    -0.166 F 
ATOM     27  F   UNL     1      32.813   3.836  55.720  1.00  0.00    -0.166 F 
ENDBRANCH  16  24
ENDBRANCH  10  12
ENDBRANCH   1   8
BRANCH   6  28
ATOM     28  N   UNL     1      23.195   4.857  54.357  1.00  0.00    -0.324 N 
ATOM     29  H   UNL     1      22.704   4.246  55.026  1.00  0.00     0.170 HD
BRANCH  28  30
ATOM     30  C   UNL     1      23.349   6.218  54.630  1.00  0.00     0.227 A 
ATOM     31  N   UNL     1      24.377   6.844  55.189  1.00  0.00    -0.221 NA
ATOM     32  N   UNL     1      22.191   6.840  54.289  1.00  0.00    -0.213 NA
ATOM     33  C   UNL     1      24.248   8.170  55.379  1.00  0.00     0.117 A 
ATOM     34  C   UNL     1      22.098   8.153  54.527  1.00  0.00     0.077 A 
ATOM     35  C   UNL     1      23.123   8.838  55.077  1.00  0.00     0.049 A 
BRANCH  34  36
ATOM     36  C   UNL     1      20.824   8.794  54.104  1.00  0.00     0.019 A 
ATOM     37  C   UNL     1      20.790   9.764  53.090  1.00  0.00     0.013 A 
ATOM     38  C   UNL     1      19.609   8.449  54.728  1.00  0.00     0.121 A 
ATOM     39  C   UNL     1      19.575  10.347  52.754  1.00  0.00     0.021 A 
ATOM     40  N   UNL     1      18.436   9.013  54.414  1.00  0.00    -0.264 NA
ATOM     41  C   UNL     1      18.428   9.920  53.423  1.00  0.00     0.111 A 
ENDBRANCH  34  36
ENDBRANCH  28  30
ENDBRANCH   6  28
TORSDOF 7
ENDMDL
MODEL 13
REMARK VINA RESULT:   -10.650      3.713     12.017
REMARK INTER + INTRA:         -13.808
REMARK INTER:                 -12.738
REMARK INTRA:                  -1.070
REMARK CONF_INDEPENDENT:        2.088
REMARK UNBOUND:                -1.070
REMARK SMILES Cc1cn(-c2cc(NC(=O)c3ccc(C)c(Nc4nccc(-c5cccnc5)n4)c3)cc(C(F)(F)F)c2)cn1
REMARK SMILES IDX 11 1 12 2 13 3 14 4 15 5 16 6 30 7 9 8 10 9 8 10 7 12 6 13
REMARK SMILES IDX 31 14 5 15 32 16 37 17 4 18 3 19 38 20 2 21 39 22 1 23 33 24
REMARK SMILES IDX 34 25 35 26 36 27 17 28 18 30 19 31 29 32 20 33 22 34 21 35
REMARK SMILES IDX 23 36 24 37 28 38 25 39 27 40 26 41
REMARK H PARENT 8 11 17 29
ROOT
ATOM      1  C   UNL     1      26.235   3.203  52.259  1.00  0.00     0.042 A 
ATOM      2  C   UNL     1      25.846   3.249  50.912  1.00  0.00     0.014 A 
ATOM      3  C   UNL     1      24.869   4.141  50.467  1.00  0.00     0.006 A 
ATOM      4  C   UNL     1      24.186   4.958  51.353  1.00  0.00    -0.027 A 
ATOM      5  C   UNL     1      23.117   5.921  50.854  1.00  0.00     0.046 C 
ATOM      6  C   UNL     1      24.494   4.843  52.707  1.00  0.00     0.045 A 
ATOM      7  C   UNL     1      25.496   3.960  53.130  1.00  0.00     0.040 A 
ENDROOT
BRANCH   1   8
ATOM      8  C   UNL     1      27.162   2.210  52.836  1.00  0.00     0.255 C 
ATOM      9  O   UNL     1      26.767   1.646  53.827  1.00  0.00    -0.269 OA
ATOM     10  N   UNL     1      28.210   1.865  52.072  1.00  0.00    -0.322 N 
ATOM     11  H   UNL     1      28.321   2.364  51.178  1.00  0.00     0.170 HD
BRANCH  10  12
ATOM     12  C   UNL     1      29.157   0.895  52.376  1.00  0.00     0.044 A 
ATOM     13  C   UNL     1      30.337   0.764  51.602  1.00  0.00     0.052 A 
ATOM     14  C   UNL     1      28.910  -0.058  53.388  1.00  0.00     0.039 A 
ATOM     15  C   UNL     1      31.300  -0.202  51.906  1.00  0.00     0.049 A 
ATOM     16  C   UNL     1      29.903  -1.026  53.710  1.00  0.00     0.060 A 
ATOM     17  C   UNL     1      31.066  -1.102  52.941  1.00  0.00     0.039 A 
BRANCH  15  18
ATOM     18  N   UNL     1      32.491  -0.313  51.173  1.00  0.00    -0.306 N 
ATOM     19  C   UNL     1      32.877  -1.307  50.275  1.00  0.00     0.116 A 
ATOM     20  C   UNL     1      33.562   0.486  51.257  1.00  0.00     0.204 A 
ATOM     21  C   UNL     1      34.141  -1.046  49.875  1.00  0.00     0.056 A 
ATOM     22  N   UNL     1      34.539   0.097  50.475  1.00  0.00    -0.242 NA
ATOM     23  C   UNL     1      34.984  -1.825  48.894  1.00  0.00     0.068 C 
ENDBRANCH  15  18
BRANCH  16  24
ATOM     24  C   UNL     1      29.639  -1.985  54.826  1.00  0.00     0.416 C 
ATOM     25  F   UNL     1      29.061  -3.145  54.456  1.00  0.00    -0.166 F 
ATOM     26  F   UNL     1      30.775  -2.406  55.371  1.00  0.00    -0.166 F 
ATOM     27  F   UNL     1      28.783  -1.485  55.741  1.00  0.00    -0.166 F 
ENDBRANCH  16  24
ENDBRANCH  10  12
ENDBRANCH   1   8
BRANCH   6  28
ATOM     28  N   UNL     1      23.937   5.768  53.599  1.00  0.00    -0.324 N 
ATOM     29  H   UNL     1      22.968   6.095  53.471  1.00  0.00     0.170 HD
BRANCH  28  30
ATOM     30  C   UNL     1      24.704   6.245  54.664  1.00  0.00     0.227 A 
ATOM     31  N   UNL     1      26.025   6.316  54.771  1.00  0.00    -0.221 NA
ATOM     32  N   UNL     1      23.853   6.576  55.669  1.00  0.00    -0.213 NA
ATOM     33  C   UNL     1      26.513   6.781  55.937  1.00  0.00     0.117 A 
ATOM     34  C   UNL     1      24.387   7.003  56.819  1.00  0.00     0.077 A 
ATOM     35  C   UNL     1      25.724   7.110  56.972  1.00  0.00     0.049 A 
BRANCH  34  36
ATOM     36  C   UNL     1      23.413   7.386  57.875  1.00  0.00     0.019 A 
ATOM     37  C   UNL     1      23.798   8.152  58.987  1.00  0.00     0.013 A 
ATOM     38  C   UNL     1      22.069   6.973  57.793  1.00  0.00     0.121 A 
ATOM     39  C   UNL     1      22.851   8.459  59.956  1.00  0.00     0.021 A 
ATOM     40  N   UNL     1      21.153   7.259  58.727  1.00  0.00    -0.264 NA
ATOM     41  C   UNL     1      21.543   8.015  59.767  1.00  0.00     0.111 A 
ENDBRANCH  34  36
ENDBRANCH  28  30
ENDBRANCH   6  28
TORSDOF 7
ENDMDL
MODEL 14
REMARK VINA RESULT:   -10.572      5.736     10.884
REMARK INTER + INTRA:         -13.799
REMARK INTER:                 -12.660
REMARK INTRA:                  -1.139
REMARK CONF_INDEPENDENT:        2.088
REMARK UNBOUND:                -1.139
REMARK SMILES Cc1cn(-c2cc(NC(=O)c3ccc(C)c(Nc4nccc(-c5cccnc5)n4)c3)cc(C(F)(F)F)c2)cn1
REMARK SMILES IDX 11 1 12 2 13 3 14 4 15 5 16 6 30 7 9 8 10 9 8 10 7 12 6 13
REMARK SMILES IDX 31 14 5 15 32 16 37 17 4 18 3 19 38 20 2 21 39 22 1 23 33 24
REMARK SMILES IDX 34 25 35 26 36 27 17 28 18 30 19 31 29 32 20 33 22 34 21 35
REMARK SMILES IDX 23 36 24 37 28 38 25 39 27 40 26 41
REMARK H PARENT 8 11 17 29
ROOT
ATOM      1  C   UNL     1      22.304   6.480  55.207  1.00  0.00     0.042 A 
ATOM      2  C   UNL     1      21.548   7.609  54.857  1.00  0.00     0.014 A 
ATOM      3  C   UNL     1      21.090   8.505  55.824  1.00  0.00     0.006 A 
ATOM      4  C   UNL     1      21.292   8.270  57.174  1.00  0.00    -0.027 A 
ATOM      5  C   UNL     1      20.779   9.252  58.218  1.00  0.00     0.046 C 
ATOM      6  C   UNL     1      21.952   7.096  57.534  1.00  0.00     0.045 A 
ATOM      7  C   UNL     1      22.427   6.223  56.548  1.00  0.00     0.040 A 
ENDROOT
BRANCH   1   8
ATOM      8  C   UNL     1      22.719   5.418  54.268  1.00  0.00     0.255 C 
ATOM      9  O   UNL     1      21.820   4.773  53.786  1.00  0.00    -0.269 OA
ATOM     10  N   UNL     1      23.998   5.451  53.866  1.00  0.00    -0.322 N 
ATOM     11  H   UNL     1      24.603   6.168  54.290  1.00  0.00     0.170 HD
BRANCH  10  12
ATOM     12  C   UNL     1      24.580   4.607  52.929  1.00  0.00     0.044 A 
ATOM     13  C   UNL     1      23.847   4.152  51.805  1.00  0.00     0.052 A 
ATOM     14  C   UNL     1      25.876   4.087  53.138  1.00  0.00     0.039 A 
ATOM     15  C   UNL     1      24.427   3.310  50.852  1.00  0.00     0.049 A 
ATOM     16  C   UNL     1      26.473   3.248  52.155  1.00  0.00     0.060 A 
ATOM     17  C   UNL     1      25.725   2.848  51.046  1.00  0.00     0.039 A 
BRANCH  15  18
ATOM     18  N   UNL     1      23.723   2.888  49.714  1.00  0.00    -0.306 N 
ATOM     19  C   UNL     1      22.897   1.777  49.558  1.00  0.00     0.116 A 
ATOM     20  C   UNL     1      23.777   3.430  48.492  1.00  0.00     0.204 A 
ATOM     21  C   UNL     1      22.504   1.721  48.267  1.00  0.00     0.056 A 
ATOM     22  N   UNL     1      23.038   2.783  47.624  1.00  0.00    -0.242 NA
ATOM     23  C   UNL     1      21.589   0.711  47.617  1.00  0.00     0.068 C 
ENDBRANCH  15  18
BRANCH  16  24
ATOM     24  C   UNL     1      27.869   2.761  52.373  1.00  0.00     0.416 C 
ATOM     25  F   UNL     1      28.032   1.428  52.256  1.00  0.00    -0.166 F 
ATOM     26  F   UNL     1      28.688   3.222  51.435  1.00  0.00    -0.166 F 
ATOM     27  F   UNL     1      28.314   3.022  53.620  1.00  0.00    -0.166 F 
ENDBRANCH  16  24
ENDBRANCH  10  12
ENDBRANCH   1   8
BRANCH   6  28
ATOM     28  N   UNL     1      22.311   6.918  58.877  1.00  0.00    -0.324 N 
ATOM     29  H   UNL     1      21.796   6.249  59.467  1.00  0.00     0.170 HD
BRANCH  28  30
ATOM     30  C   UNL     1      23.372   7.654  59.408  1.00  0.00     0.227 A 
ATOM     31  N   UNL     1      23.633   8.949  59.280  1.00  0.00    -0.221 NA
ATOM     32  N   UNL     1      24.193   6.786  60.053  1.00  0.00    -0.213 NA
ATOM     33  C   UNL     1      24.759   9.399  59.865  1.00  0.00     0.117 A 
ATOM     34  C   UNL     1      25.316   7.275  60.590  1.00  0.00     0.077 A 
ATOM     35  C   UNL     1      25.618   8.588  60.503  1.00  0.00     0.049 A 
BRANCH  34  36
ATOM     36  C   UNL     1      26.163   6.292  61.315  1.00  0.00     0.019 A 
ATOM     37  C   UNL     1      26.402   6.401  62.694  1.00  0.00     0.013 A 
ATOM     38  C   UNL     1      26.766   5.222  60.625  1.00  0.00     0.121 A 
ATOM     39  C   UNL     1      27.222   5.467  63.314  1.00  0.00     0.021 A 
ATOM     40  N   UNL     1      27.564   4.323  61.216  1.00  0.00    -0.264 NA
ATOM     41  C   UNL     1      27.755   4.437  62.540  1.00  0.00     0.111 A 
ENDBRANCH  34  36
ENDBRANCH  28  30
ENDBRANCH   6  28
TORSDOF 7
ENDMDL
MODEL 15
REMARK VINA RESULT:   -10.487      5.181      8.080
REMARK INTER + INTRA:         -13.772
REMARK INTER:                 -12.575
REMARK INTRA:                  -1.197
REMARK CONF_INDEPENDENT:        2.088
REMARK UNBOUND:                -1.197
REMARK SMILES Cc1cn(-c2cc(NC(=O)c3ccc(C)c(Nc4nccc(-c5cccnc5)n4)c3)cc(C(F)(F)F)c2)cn1
REMARK SMILES IDX 11 1 12 2 13 3 14 4 15 5 16 6 30 7 9 8 10 9 8 10 7 12 6 13
REMARK SMILES IDX 31 14 5 15 32 16 37 17 4 18 3 19 38 20 2 21 39 22 1 23 33 24
REMARK SMILES IDX 34 25 35 26 36 27 17 28 18 30 19 31 29 32 20 33 22 34 21 35
REMARK SMILES IDX 23 36 24 37 28 38 25 39 27 40 26 41
REMARK H PARENT 8 11 17 29
ROOT
ATOM      1  C   UNL     1      24.493   5.913  54.195  1.00  0.00     0.042 A 
ATOM      2  C   UNL     1      23.893   6.633  53.151  1.00  0.00     0.014 A 
ATOM      3  C   UNL     1      23.773   6.092  51.870  1.00  0.00     0.006 A 
ATOM      4  C   UNL     1      24.317   4.856  51.558  1.00  0.00    -0.027 A 
ATOM      5  C   UNL     1      24.185   4.282  50.155  1.00  0.00     0.046 C 
ATOM      6  C   UNL     1      25.005   4.181  52.565  1.00  0.00     0.045 A 
ATOM      7  C   UNL     1      25.092   4.729  53.850  1.00  0.00     0.040 A 
ENDROOT
BRANCH   1   8
ATOM      8  C   UNL     1      24.774   6.454  55.539  1.00  0.00     0.255 C 
ATOM      9  O   UNL     1      25.837   7.012  55.662  1.00  0.00    -0.269 OA
ATOM     10  N   UNL     1      23.738   6.491  56.391  1.00  0.00    -0.322 N 
ATOM     11  H   UNL     1      22.851   6.081  56.065  1.00  0.00     0.170 HD
BRANCH  10  12
ATOM     12  C   UNL     1      23.752   7.031  57.670  1.00  0.00     0.044 A 
ATOM     13  C   UNL     1      24.697   6.597  58.632  1.00  0.00     0.052 A 
ATOM     14  C   UNL     1      22.749   7.937  58.078  1.00  0.00     0.039 A 
ATOM     15  C   UNL     1      24.726   7.142  59.919  1.00  0.00     0.049 A 
ATOM     16  C   UNL     1      22.793   8.507  59.383  1.00  0.00     0.060 A 
ATOM     17  C   UNL     1      23.762   8.073  60.290  1.00  0.00     0.039 A 
BRANCH  15  18
ATOM     18  N   UNL     1      25.685   6.749  60.865  1.00  0.00    -0.306 N 
ATOM     19  C   UNL     1      25.950   5.476  61.367  1.00  0.00     0.116 A 
ATOM     20  C   UNL     1      26.497   7.552  61.563  1.00  0.00     0.204 A 
ATOM     21  C   UNL     1      26.899   5.588  62.321  1.00  0.00     0.056 A 
ATOM     22  N   UNL     1      27.252   6.890  62.406  1.00  0.00    -0.242 NA
ATOM     23  C   UNL     1      27.529   4.486  63.138  1.00  0.00     0.068 C 
ENDBRANCH  15  18
BRANCH  16  24
ATOM     24  C   UNL     1      21.753   9.509  59.768  1.00  0.00     0.416 C 
ATOM     25  F   UNL     1      20.716   9.610  58.914  1.00  0.00    -0.166 F 
ATOM     26  F   UNL     1      21.148   9.158  60.896  1.00  0.00    -0.166 F 
ATOM     27  F   UNL     1      22.244  10.765  59.815  1.00  0.00    -0.166 F 
ENDBRANCH  16  24
ENDBRANCH  10  12
ENDBRANCH   1   8
BRANCH   6  28
ATOM     28  N   UNL     1      25.420   2.865  52.322  1.00  0.00    -0.324 N 
ATOM     29  H   UNL     1      24.734   2.097  52.316  1.00  0.00     0.170 HD
BRANCH  28  30
ATOM     30  C   UNL     1      26.771   2.603  52.087  1.00  0.00     0.227 A 
ATOM     31  N   UNL     1      27.608   3.222  51.265  1.00  0.00    -0.221 NA
ATOM     32  N   UNL     1      27.109   1.505  52.811  1.00  0.00    -0.213 NA
ATOM     33  C   UNL     1      28.862   2.734  51.197  1.00  0.00     0.117 A 
ATOM     34  C   UNL     1      28.357   1.038  52.687  1.00  0.00     0.077 A 
ATOM     35  C   UNL     1      29.251   1.644  51.876  1.00  0.00     0.049 A 
BRANCH  34  36
ATOM     36  C   UNL     1      28.688  -0.143  53.526  1.00  0.00     0.019 A 
ATOM     37  C   UNL     1      27.904  -0.500  54.635  1.00  0.00     0.013 A 
ATOM     38  C   UNL     1      29.816  -0.934  53.235  1.00  0.00     0.121 A 
ATOM     39  C   UNL     1      28.276  -1.599  55.398  1.00  0.00     0.021 A 
ATOM     40  N   UNL     1      30.184  -1.990  53.971  1.00  0.00    -0.264 NA
ATOM     41  C   UNL     1      29.402  -2.324  55.011  1.00  0.00     0.111 A 
ENDBRANCH  34  36
ENDBRANCH  28  30
ENDBRANCH   6  28
TORSDOF 7
ENDMDL
MODEL 16
REMARK VINA RESULT:   -10.405      3.308     11.944
REMARK INTER + INTRA:         -13.700
REMARK INTER:                 -12.493
REMARK INTRA:                  -1.206
REMARK CONF_INDEPENDENT:        2.088
REMARK UNBOUND:                -1.206
REMARK SMILES Cc1cn(-c2cc(NC(=O)c3ccc(C)c(Nc4nccc(-c5cccnc5)n4)c3)cc(C(F)(F)F)c2)cn1
REMARK SMILES IDX 11 1 12 2 13 3 14 4 15 5 16 6 30 7 9 8 10 9 8 10 7 12 6 13
REMARK SMILES IDX 31 14 5 15 32 16 37 17 4 18 3 19 38 20 2 21 39 22 1 23 33 24
REMARK SMILES IDX 34 25 35 26 36 27 17 28 18 30 19 31 29 32 20 33 22 34 21 35
REMARK SMILES IDX 23 36 24 37 28 38 25 39 27 40 26 41
REMARK H PARENT 8 11 17 29
ROOT
ATOM      1  C   UNL     1      25.280   3.813  51.159  1.00  0.00     0.042 A 
ATOM      2  C   UNL     1      25.430   3.975  49.774  1.00  0.00     0.014 A 
ATOM      3  C   UNL     1      24.476   4.651  49.013  1.00  0.00     0.006 A 
ATOM      4  C   UNL     1      23.302   5.118  49.583  1.00  0.00    -0.027 A 
ATOM      5  C   UNL     1      22.266   5.848  48.740  1.00  0.00     0.046 C 
ATOM      6  C   UNL     1      23.099   4.870  50.940  1.00  0.00     0.045 A 
ATOM      7  C   UNL     1      24.081   4.211  51.691  1.00  0.00     0.040 A 
ENDROOT
BRANCH   1   8
ATOM      8  C   UNL     1      26.172   3.007  52.016  1.00  0.00     0.255 C 
ATOM      9  O   UNL     1      25.775   2.812  53.139  1.00  0.00    -0.269 OA
ATOM     10  N   UNL     1      27.180   2.377  51.394  1.00  0.00    -0.322 N 
ATOM     11  H   UNL     1      27.292   2.558  50.386  1.00  0.00     0.170 HD
BRANCH  10  12
ATOM     12  C   UNL     1      28.085   1.505  51.984  1.00  0.00     0.044 A 
ATOM     13  C   UNL     1      29.306   1.180  51.343  1.00  0.00     0.052 A 
ATOM     14  C   UNL     1      27.756   0.829  53.179  1.00  0.00     0.039 A 
ATOM     15  C   UNL     1      30.228   0.311  51.934  1.00  0.00     0.049 A 
ATOM     16  C   UNL     1      28.705  -0.039  53.791  1.00  0.00     0.060 A 
ATOM     17  C   UNL     1      29.911  -0.308  53.138  1.00  0.00     0.039 A 
BRANCH  15  18
ATOM     18  N   UNL     1      31.458   0.016  51.327  1.00  0.00    -0.306 N 
ATOM     19  C   UNL     1      31.736  -0.895  50.309  1.00  0.00     0.116 A 
ATOM     20  C   UNL     1      32.658   0.496  51.673  1.00  0.00     0.204 A 
ATOM     21  C   UNL     1      33.071  -0.904  50.104  1.00  0.00     0.056 A 
ATOM     22  N   UNL     1      33.626  -0.003  50.945  1.00  0.00    -0.242 NA
ATOM     23  C   UNL     1      33.850  -1.713  49.095  1.00  0.00     0.068 C 
ENDBRANCH  15  18
BRANCH  16  24
ATOM     24  C   UNL     1      28.354  -0.695  55.086  1.00  0.00     0.416 C 
ATOM     25  F   UNL     1      29.396  -1.220  55.761  1.00  0.00    -0.166 F 
ATOM     26  F   UNL     1      27.881   0.190  55.956  1.00  0.00    -0.166 F 
ATOM     27  F   UNL     1      27.526  -1.747  54.921  1.00  0.00    -0.166 F 
ENDBRANCH  16  24
ENDBRANCH  10  12
ENDBRANCH   1   8
BRANCH   6  28
ATOM     28  N   UNL     1      22.002   5.470  51.571  1.00  0.00    -0.324 N 
ATOM     29  H   UNL     1      21.122   5.615  51.056  1.00  0.00     0.170 HD
BRANCH  28  30
ATOM     30  C   UNL     1      22.112   5.872  52.903  1.00  0.00     0.227 A 
ATOM     31  N   UNL     1      21.989   5.142  54.005  1.00  0.00    -0.221 NA
ATOM     32  N   UNL     1      22.298   7.217  52.915  1.00  0.00    -0.213 NA
ATOM     33  C   UNL     1      22.099   5.794  55.178  1.00  0.00     0.117 A 
ATOM     34  C   UNL     1      22.369   7.825  54.104  1.00  0.00     0.077 A 
ATOM     35  C   UNL     1      22.268   7.124  55.254  1.00  0.00     0.049 A 
BRANCH  34  36
ATOM     36  C   UNL     1      22.609   9.291  54.063  1.00  0.00     0.019 A 
ATOM     37  C   UNL     1      23.706   9.876  54.715  1.00  0.00     0.013 A 
ATOM     38  C   UNL     1      21.723  10.142  53.373  1.00  0.00     0.121 A 
ATOM     39  C   UNL     1      23.866  11.255  54.663  1.00  0.00     0.021 A 
ATOM     40  N   UNL     1      21.867  11.472  53.326  1.00  0.00    -0.264 NA
ATOM     41  C   UNL     1      22.939  12.002  53.938  1.00  0.00     0.111 A 
ENDBRANCH  34  36
ENDBRANCH  28  30
ENDBRANCH   6  28
TORSDOF 7
ENDMDL
MODEL 17
REMARK VINA RESULT:   -10.361      5.091     13.754
REMARK INTER + INTRA:         -13.662
REMARK INTER:                 -12.449
REMARK INTRA:                  -1.213
REMARK CONF_INDEPENDENT:        2.088
REMARK UNBOUND:                -1.213
REMARK SMILES Cc1cn(-c2cc(NC(=O)c3ccc(C)c(Nc4nccc(-c5cccnc5)n4)c3)cc(C(F)(F)F)c2)cn1
REMARK SMILES IDX 11 1 12 2 13 3 14 4 15 5 16 6 30 7 9 8 10 9 8 10 7 12 6 13
REMARK SMILES IDX 31 14 5 15 32 16 37 17 4 18 3 19 38 20 2 21 39 22 1 23 33 24
REMARK SMILES IDX 34 25 35 26 36 27 17 28 18 30 19 31 29 32 20 33 22 34 21 35
REMARK SMILES IDX 23 36 24 37 28 38 25 39 27 40 26 41
REMARK H PARENT 8 11 17 29
ROOT
ATOM      1  C   UNL     1      21.384   9.455  54.047  1.00  0.00     0.042 A 
ATOM      2  C   UNL     1      22.185  10.029  55.045  1.00  0.00     0.014 A 
ATOM      3  C   UNL     1      21.627  10.759  56.095  1.00  0.00     0.006 A 
ATOM      4  C   UNL     1      20.266  11.015  56.148  1.00  0.00    -0.027 A 
ATOM      5  C   UNL     1      19.671  11.818  57.296  1.00  0.00     0.046 C 
ATOM      6  C   UNL     1      19.477  10.535  55.104  1.00  0.00     0.045 A 
ATOM      7  C   UNL     1      20.054   9.784  54.072  1.00  0.00     0.040 A 
ENDROOT
BRANCH   1   8
ATOM      8  C   UNL     1      21.897   8.780  52.838  1.00  0.00     0.255 C 
ATOM      9  O   UNL     1      22.077   9.495  51.882  1.00  0.00    -0.269 OA
ATOM     10  N   UNL     1      22.339   7.524  53.004  1.00  0.00    -0.322 N 
ATOM     11  H   UNL     1      22.226   7.109  53.939  1.00  0.00     0.170 HD
BRANCH  10  12
ATOM     12  C   UNL     1      22.936   6.734  52.030  1.00  0.00     0.044 A 
ATOM     13  C   UNL     1      23.932   5.786  52.372  1.00  0.00     0.052 A 
ATOM     14  C   UNL     1      22.650   6.941  50.663  1.00  0.00     0.039 A 
ATOM     15  C   UNL     1      24.530   4.979  51.401  1.00  0.00     0.049 A 
ATOM     16  C   UNL     1      23.244   6.103  49.677  1.00  0.00     0.060 A 
ATOM     17  C   UNL     1      24.200   5.160  50.061  1.00  0.00     0.039 A 
BRANCH  15  18
ATOM     18  N   UNL     1      25.487   4.008  51.734  1.00  0.00    -0.306 N 
ATOM     19  C   UNL     1      26.025   3.702  52.983  1.00  0.00     0.116 A 
ATOM     20  C   UNL     1      26.160   3.222  50.886  1.00  0.00     0.204 A 
ATOM     21  C   UNL     1      26.975   2.757  52.813  1.00  0.00     0.056 A 
ATOM     22  N   UNL     1      27.021   2.447  51.498  1.00  0.00    -0.242 NA
ATOM     23  C   UNL     1      27.823   2.092  53.870  1.00  0.00     0.068 C 
ENDBRANCH  15  18
BRANCH  16  24
ATOM     24  C   UNL     1      22.878   6.305  48.242  1.00  0.00     0.416 C 
ATOM     25  F   UNL     1      23.917   6.301  47.383  1.00  0.00    -0.166 F 
ATOM     26  F   UNL     1      22.143   5.296  47.791  1.00  0.00    -0.166 F 
ATOM     27  F   UNL     1      22.297   7.503  48.025  1.00  0.00    -0.166 F 
ENDBRANCH  16  24
ENDBRANCH  10  12
ENDBRANCH   1   8
BRANCH   6  28
ATOM     28  N   UNL     1      18.085  10.640  55.217  1.00  0.00    -0.324 N 
ATOM     29  H   UNL     1      17.655  10.885  56.120  1.00  0.00     0.170 HD
BRANCH  28  30
ATOM     30  C   UNL     1      17.285  10.408  54.096  1.00  0.00     0.227 A 
ATOM     31  N   UNL     1      16.988  11.234  53.101  1.00  0.00    -0.221 NA
ATOM     32  N   UNL     1      16.759   9.162  54.216  1.00  0.00    -0.213 NA
ATOM     33  C   UNL     1      16.149  10.767  52.157  1.00  0.00     0.117 A 
ATOM     34  C   UNL     1      15.905   8.754  53.270  1.00  0.00     0.077 A 
ATOM     35  C   UNL     1      15.585   9.551  52.228  1.00  0.00     0.049 A 
BRANCH  34  36
ATOM     36  C   UNL     1      15.385   7.371  53.428  1.00  0.00     0.019 A 
ATOM     37  C   UNL     1      14.756   6.952  54.611  1.00  0.00     0.013 A 
ATOM     38  C   UNL     1      15.525   6.431  52.388  1.00  0.00     0.121 A 
ATOM     39  C   UNL     1      14.312   5.640  54.712  1.00  0.00     0.021 A 
ATOM     40  N   UNL     1      15.106   5.162  52.482  1.00  0.00    -0.264 NA
ATOM     41  C   UNL     1      14.485   4.796  53.615  1.00  0.00     0.111 A 
ENDBRANCH  34  36
ENDBRANCH  28  30
ENDBRANCH   6  28
TORSDOF 7
ENDMDL
MODEL 18
REMARK VINA RESULT:   -10.318      3.442     11.123
REMARK INTER + INTRA:         -13.673
REMARK INTER:                 -12.406
REMARK INTRA:                  -1.267
REMARK CONF_INDEPENDENT:        2.088
REMARK UNBOUND:                -1.267
REMARK SMILES Cc1cn(-c2cc(NC(=O)c3ccc(C)c(Nc4nccc(-c5cccnc5)n4)c3)cc(C(F)(F)F)c2)cn1
REMARK SMILES IDX 11 1 12 2 13 3 14 4 15 5 16 6 30 7 9 8 10 9 8 10 7 12 6 13
REMARK SMILES IDX 31 14 5 15 32 16 37 17 4 18 3 19 38 20 2 21 39 22 1 23 33 24
REMARK SMILES IDX 34 25 35 26 36 27 17 28 18 30 19 31 29 32 20 33 22 34 21 35
REMARK SMILES IDX 23 36 24 37 28 38 25 39 27 40 26 41
REMARK H PARENT 8 11 17 29
ROOT
ATOM      1  C   UNL     1      25.593   3.789  51.196  1.00  0.00     0.042 A 
ATOM      2  C   UNL     1      25.321   3.597  49.833  1.00  0.00     0.014 A 
ATOM      3  C   UNL     1      24.394   4.392  49.158  1.00  0.00     0.006 A 
ATOM      4  C   UNL     1      23.645   5.348  49.826  1.00  0.00    -0.027 A 
ATOM      5  C   UNL     1      22.632   6.202  49.078  1.00  0.00     0.046 C 
ATOM      6  C   UNL     1      23.836   5.472  51.201  1.00  0.00     0.045 A 
ATOM      7  C   UNL     1      24.789   4.682  51.856  1.00  0.00     0.040 A 
ENDROOT
BRANCH   1   8
ATOM      8  C   UNL     1      26.458   2.917  52.014  1.00  0.00     0.255 C 
ATOM      9  O   UNL     1      26.056   2.685  53.128  1.00  0.00    -0.269 OA
ATOM     10  N   UNL     1      27.446   2.285  51.363  1.00  0.00    -0.322 N 
ATOM     11  H   UNL     1      27.564   2.507  50.365  1.00  0.00     0.170 HD
BRANCH  10  12
ATOM     12  C   UNL     1      28.324   1.359  51.913  1.00  0.00     0.044 A 
ATOM     13  C   UNL     1      29.487   0.955  51.212  1.00  0.00     0.052 A 
ATOM     14  C   UNL     1      28.014   0.709  53.127  1.00  0.00     0.039 A 
ATOM     15  C   UNL     1      30.381   0.032  51.761  1.00  0.00     0.049 A 
ATOM     16  C   UNL     1      28.937  -0.215  53.695  1.00  0.00     0.060 A 
ATOM     17  C   UNL     1      30.088  -0.562  52.984  1.00  0.00     0.039 A 
BRANCH  15  18
ATOM     18  N   UNL     1      31.558  -0.342  51.095  1.00  0.00    -0.306 N 
ATOM     19  C   UNL     1      32.832   0.215  51.187  1.00  0.00     0.116 A 
ATOM     20  C   UNL     1      31.677  -1.276  50.143  1.00  0.00     0.204 A 
ATOM     21  C   UNL     1      33.633  -0.413  50.298  1.00  0.00     0.056 A 
ATOM     22  N   UNL     1      32.900  -1.365  49.679  1.00  0.00    -0.242 NA
ATOM     23  C   UNL     1      35.101  -0.175  50.041  1.00  0.00     0.068 C 
ENDBRANCH  15  18
BRANCH  16  24
ATOM     24  C   UNL     1      28.611  -0.844  55.011  1.00  0.00     0.416 C 
ATOM     25  F   UNL     1      27.808  -1.924  54.944  1.00  0.00    -0.166 F 
ATOM     26  F   UNL     1      29.699  -1.345  55.583  1.00  0.00    -0.166 F 
ATOM     27  F   UNL     1      27.940  -0.005  55.828  1.00  0.00    -0.166 F 
ENDBRANCH  16  24
ENDBRANCH  10  12
ENDBRANCH   1   8
BRANCH   6  28
ATOM     28  N   UNL     1      23.213   6.536  51.867  1.00  0.00    -0.324 N 
ATOM     29  H   UNL     1      23.037   7.424  51.376  1.00  0.00     0.170 HD
BRANCH  28  30
ATOM     30  C   UNL     1      22.832   6.382  53.202  1.00  0.00     0.227 A 
ATOM     31  N   UNL     1      21.620   6.188  53.705  1.00  0.00    -0.221 NA
ATOM     32  N   UNL     1      23.942   6.546  53.968  1.00  0.00    -0.213 NA
ATOM     33  C   UNL     1      21.525   6.116  55.046  1.00  0.00     0.117 A 
ATOM     34  C   UNL     1      23.792   6.499  55.297  1.00  0.00     0.077 A 
ATOM     35  C   UNL     1      22.582   6.286  55.856  1.00  0.00     0.049 A 
BRANCH  34  36
ATOM     36  C   UNL     1      25.041   6.649  56.089  1.00  0.00     0.019 A 
ATOM     37  C   UNL     1      25.012   7.010  57.446  1.00  0.00     0.013 A 
ATOM     38  C   UNL     1      26.298   6.445  55.488  1.00  0.00     0.121 A 
ATOM     39  C   UNL     1      26.211   7.160  58.130  1.00  0.00     0.021 A 
ATOM     40  N   UNL     1      27.458   6.597  56.140  1.00  0.00    -0.264 NA
ATOM     41  C   UNL     1      27.400   6.917  57.443  1.00  0.00     0.111 A 
ENDBRANCH  34  36
ENDBRANCH  28  30
ENDBRANCH   6  28
TORSDOF 7
ENDMDL
MODEL 19
REMARK VINA RESULT:   -10.275      8.364     14.810
REMARK INTER + INTRA:         -13.686
REMARK INTER:                 -12.363
REMARK INTRA:                  -1.323
REMARK CONF_INDEPENDENT:        2.088
REMARK UNBOUND:                -1.323
REMARK SMILES Cc1cn(-c2cc(NC(=O)c3ccc(C)c(Nc4nccc(-c5cccnc5)n4)c3)cc(C(F)(F)F)c2)cn1
REMARK SMILES IDX 11 1 12 2 13 3 14 4 15 5 16 6 30 7 9 8 10 9 8 10 7 12 6 13
REMARK SMILES IDX 31 14 5 15 32 16 37 17 4 18 3 19 38 20 2 21 39 22 1 23 33 24
REMARK SMILES IDX 34 25 35 26 36 27 17 28 18 30 19 31 29 32 20 33 22 34 21 35
REMARK SMILES IDX 23 36 24 37 28 38 25 39 27 40 26 41
REMARK H PARENT 8 11 17 29
ROOT
ATOM      1  C   UNL     1      36.035  -1.558  49.155  1.00  0.00     0.042 A 
ATOM      2  C   UNL     1      35.345  -2.778  49.087  1.00  0.00     0.014 A 
ATOM      3  C   UNL     1      33.986  -2.863  49.394  1.00  0.00     0.006 A 
ATOM      4  C   UNL     1      33.284  -1.762  49.857  1.00  0.00    -0.027 A 
ATOM      5  C   UNL     1      31.804  -1.871  50.195  1.00  0.00     0.046 C 
ATOM      6  C   UNL     1      33.988  -0.571  50.026  1.00  0.00     0.045 A 
ATOM      7  C   UNL     1      35.346  -0.500  49.689  1.00  0.00     0.040 A 
ENDROOT
BRANCH   1   8
ATOM      8  C   UNL     1      37.491  -1.401  48.973  1.00  0.00     0.255 C 
ATOM      9  O   UNL     1      38.090  -0.972  49.929  1.00  0.00    -0.269 OA
ATOM     10  N   UNL     1      38.016  -1.977  47.881  1.00  0.00    -0.322 N 
ATOM     11  H   UNL     1      37.359  -2.422  47.225  1.00  0.00     0.170 HD
BRANCH  10  12
ATOM     12  C   UNL     1      39.365  -2.026  47.553  1.00  0.00     0.044 A 
ATOM     13  C   UNL     1      40.147  -0.846  47.510  1.00  0.00     0.052 A 
ATOM     14  C   UNL     1      39.959  -3.238  47.138  1.00  0.00     0.039 A 
ATOM     15  C   UNL     1      41.508  -0.887  47.192  1.00  0.00     0.049 A 
ATOM     16  C   UNL     1      41.350  -3.282  46.835  1.00  0.00     0.060 A 
ATOM     17  C   UNL     1      42.091  -2.098  46.835  1.00  0.00     0.039 A 
BRANCH  15  18
ATOM     18  N   UNL     1      42.300   0.271  47.188  1.00  0.00    -0.306 N 
ATOM     19  C   UNL     1      42.245   1.373  48.039  1.00  0.00     0.116 A 
ATOM     20  C   UNL     1      43.233   0.600  46.287  1.00  0.00     0.204 A 
ATOM     21  C   UNL     1      43.141   2.286  47.606  1.00  0.00     0.056 A 
ATOM     22  N   UNL     1      43.772   1.770  46.528  1.00  0.00    -0.242 NA
ATOM     23  C   UNL     1      43.461   3.632  48.210  1.00  0.00     0.068 C 
ENDBRANCH  15  18
BRANCH  16  24
ATOM     24  C   UNL     1      41.965  -4.590  46.457  1.00  0.00     0.416 C 
ATOM     25  F   UNL     1      41.091  -5.540  46.069  1.00  0.00    -0.166 F 
ATOM     26  F   UNL     1      42.730  -4.464  45.379  1.00  0.00    -0.166 F 
ATOM     27  F   UNL     1      42.618  -5.167  47.487  1.00  0.00    -0.166 F 
ENDBRANCH  16  24
ENDBRANCH  10  12
ENDBRANCH   1   8
BRANCH   6  28
ATOM     28  N   UNL     1      33.269   0.591  50.336  1.00  0.00    -0.324 N 
ATOM     29  H   UNL     1      32.850   1.158  49.585  1.00  0.00     0.170 HD
BRANCH  28  30
ATOM     30  C   UNL     1      33.125   0.973  51.671  1.00  0.00     0.227 A 
ATOM     31  N   UNL     1      33.857   1.825  52.377  1.00  0.00    -0.221 NA
ATOM     32  N   UNL     1      32.108   0.245  52.200  1.00  0.00    -0.213 NA
ATOM     33  C   UNL     1      33.525   1.981  53.672  1.00  0.00     0.117 A 
ATOM     34  C   UNL     1      31.835   0.411  53.499  1.00  0.00     0.077 A 
ATOM     35  C   UNL     1      32.540   1.279  54.256  1.00  0.00     0.049 A 
BRANCH  34  36
ATOM     36  C   UNL     1      30.692  -0.382  54.022  1.00  0.00     0.019 A 
ATOM     37  C   UNL     1      29.610   0.230  54.676  1.00  0.00     0.013 A 
ATOM     38  C   UNL     1      30.671  -1.784  53.885  1.00  0.00     0.121 A 
ATOM     39  C   UNL     1      28.581  -0.564  55.166  1.00  0.00     0.021 A 
ATOM     40  N   UNL     1      29.686  -2.555  54.362  1.00  0.00    -0.264 NA
ATOM     41  C   UNL     1      28.652  -1.942  54.961  1.00  0.00     0.111 A 
ENDBRANCH  34  36
ENDBRANCH  28  30
ENDBRANCH   6  28
TORSDOF 7
ENDMDL
MODEL 20
REMARK VINA RESULT:    -9.698      4.145     10.532
REMARK INTER + INTRA:         -13.657
REMARK INTER:                 -11.786
REMARK INTRA:                  -1.871
REMARK CONF_INDEPENDENT:        2.088
REMARK UNBOUND:                -1.871
REMARK SMILES Cc1cn(-c2cc(NC(=O)c3ccc(C)c(Nc4nccc(-c5cccnc5)n4)c3)cc(C(F)(F)F)c2)cn1
REMARK SMILES IDX 11 1 12 2 13 3 14 4 15 5 16 6 30 7 9 8 10 9 8 10 7 12 6 13
REMARK SMILES IDX 31 14 5 15 32 16 37 17 4 18 3 19 38 20 2 21 39 22 1 23 33 24
REMARK SMILES IDX 34 25 35 26 36 27 17 28 18 30 19 31 29 32 20 33 22 34 21 35
REMARK SMILES IDX 23 36 24 37 28 38 25 39 27 40 26 41
REMARK H PARENT 8 11 17 29
ROOT
ATOM      1  C   UNL     1      21.648   6.768  54.155  1.00  0.00     0.042 A 
ATOM      2  C   UNL     1      21.111   7.933  53.587  1.00  0.00     0.014 A 
ATOM      3  C   UNL     1      20.393   8.851  54.354  1.00  0.00     0.006 A 
ATOM      4  C   UNL     1      20.110   8.607  55.688  1.00  0.00    -0.027 A 
ATOM      5  C   UNL     1      19.318   9.614  56.511  1.00  0.00     0.046 C 
ATOM      6  C   UNL     1      20.551   7.402  56.233  1.00  0.00     0.045 A 
ATOM      7  C   UNL     1      21.293   6.505  55.453  1.00  0.00     0.040 A 
ENDROOT
BRANCH   1   8
ATOM      8  C   UNL     1      22.308   5.686  53.397  1.00  0.00     0.255 C 
ATOM      9  O   UNL     1      21.676   4.663  53.297  1.00  0.00    -0.269 OA
ATOM     10  N   UNL     1      23.401   6.034  52.701  1.00  0.00    -0.322 N 
ATOM     11  H   UNL     1      23.731   7.004  52.802  1.00  0.00     0.170 HD
BRANCH  10  12
ATOM     12  C   UNL     1      24.128   5.204  51.857  1.00  0.00     0.044 A 
ATOM     13  C   UNL     1      25.276   4.517  52.324  1.00  0.00     0.052 A 
ATOM     14  C   UNL     1      23.811   5.122  50.483  1.00  0.00     0.039 A 
ATOM     15  C   UNL     1      26.008   3.673  51.486  1.00  0.00     0.049 A 
ATOM     16  C   UNL     1      24.545   4.244  49.636  1.00  0.00     0.060 A 
ATOM     17  C   UNL     1      25.652   3.561  50.145  1.00  0.00     0.039 A 
BRANCH  15  18
ATOM     18  N   UNL     1      27.121   2.955  51.950  1.00  0.00    -0.306 N 
ATOM     19  C   UNL     1      27.567   2.782  53.259  1.00  0.00     0.116 A 
ATOM     20  C   UNL     1      28.054   2.353  51.203  1.00  0.00     0.204 A 
ATOM     21  C   UNL     1      28.727   2.089  53.221  1.00  0.00     0.056 A 
ATOM     22  N   UNL     1      28.997   1.802  51.928  1.00  0.00    -0.242 NA
ATOM     23  C   UNL     1      29.579   1.641  54.384  1.00  0.00     0.068 C 
ENDBRANCH  15  18
BRANCH  16  24
ATOM     24  C   UNL     1      24.150   4.131  48.199  1.00  0.00     0.416 C 
ATOM     25  F   UNL     1      22.827   4.228  47.963  1.00  0.00    -0.166 F 
ATOM     26  F   UNL     1      24.631   5.145  47.490  1.00  0.00    -0.166 F 
ATOM     27  F   UNL     1      24.475   2.933  47.671  1.00  0.00    -0.166 F 
ENDBRANCH  16  24
ENDBRANCH  10  12
ENDBRANCH   1   8
BRANCH   6  28
ATOM     28  N   UNL     1      20.420   7.206  57.613  1.00  0.00    -0.324 N 
ATOM     29  H   UNL     1      19.525   6.887  58.010  1.00  0.00     0.170 HD
BRANCH  28  30
ATOM     30  C   UNL     1      21.513   7.448  58.448  1.00  0.00     0.227 A 
ATOM     31  N   UNL     1      21.525   7.915  59.690  1.00  0.00    -0.221 NA
ATOM     32  N   UNL     1      22.640   7.191  57.735  1.00  0.00    -0.213 NA
ATOM     33  C   UNL     1      22.733   8.097  60.257  1.00  0.00     0.117 A 
ATOM     34  C   UNL     1      23.817   7.417  58.330  1.00  0.00     0.077 A 
ATOM     35  C   UNL     1      23.882   7.875  59.599  1.00  0.00     0.049 A 
BRANCH  34  36
ATOM     36  C   UNL     1      25.020   7.087  57.521  1.00  0.00     0.019 A 
ATOM     37  C   UNL     1      24.944   6.907  56.131  1.00  0.00     0.013 A 
ATOM     38  C   UNL     1      26.276   6.930  58.138  1.00  0.00     0.121 A 
ATOM     39  C   UNL     1      26.096   6.575  55.429  1.00  0.00     0.021 A 
ATOM     40  N   UNL     1      27.389   6.602  57.468  1.00  0.00    -0.264 NA
ATOM     41  C   UNL     1      27.292   6.462  56.136  1.00  0.00     0.111 A 
ENDBRANCH  34  36
ENDBRANCH  28  30
ENDBRANCH   6  28
TORSDOF 7
ENDMDL
