MODEL 1
REMARK VINA RESULT:   -14.415      0.000      0.000
REMARK INTER + INTRA:         -17.673
REMARK INTER:                 -16.503
REMARK INTRA:                  -1.169
REMARK CONF_INDEPENDENT:        2.088
REMARK UNBOUND:                -1.169
REMARK SMILES Cc1cn(-c2cc(NC(=O)c3ccc(C)c(Nc4nccc(-c5cccnc5)n4)c3)cc(C(F)(F)F)c2)cn1
REMARK SMILES IDX 11 1 12 2 13 3 14 4 15 5 16 6 30 7 9 8 10 9 8 10 7 12 6 13
REMARK SMILES IDX 31 14 5 15 32 16 37 17 4 18 3 19 38 20 2 21 39 22 1 23 33 24
REMARK SMILES IDX 34 25 35 26 36 27 17 28 18 30 19 31 29 32 20 33 22 34 21 35
REMARK SMILES IDX 23 36 24 37 28 38 25 39 27 40 26 41
REMARK H PARENT 8 11 17 29
ROOT
ATOM      1  C   UNL     1      27.961   1.689  53.073  1.00  0.00     0.042 A 
ATOM      2  C   UNL     1      27.651   1.139  54.326  1.00  0.00     0.014 A 
ATOM      3  C   UNL     1      28.357   0.049  54.836  1.00  0.00     0.006 A 
ATOM      4  C   UNL     1      29.336  -0.586  54.090  1.00  0.00    -0.027 A 
ATOM      5  C   UNL     1      30.093  -1.779  54.656  1.00  0.00     0.046 C 
ATOM      6  C   UNL     1      29.578  -0.109  52.802  1.00  0.00     0.045 A 
ATOM      7  C   UNL     1      28.876   1.003  52.318  1.00  0.00     0.040 A 
ENDROOT
BRANCH   1   8
ATOM      8  C   UNL     1      27.188   2.755  52.404  1.00  0.00     0.255 C 
ATOM      9  O   UNL     1      27.500   2.981  51.261  1.00  0.00    -0.269 OA
ATOM     10  N   UNL     1      26.081   3.169  53.039  1.00  0.00    -0.322 N 
ATOM     11  H   UNL     1      25.894   2.763  53.966  1.00  0.00     0.170 HD
BRANCH  10  12
ATOM     12  C   UNL     1      25.164   4.096  52.559  1.00  0.00     0.044 A 
ATOM     13  C   UNL     1      24.241   4.724  53.430  1.00  0.00     0.052 A 
ATOM     14  C   UNL     1      25.052   4.343  51.173  1.00  0.00     0.039 A 
ATOM     15  C   UNL     1      23.321   5.665  52.958  1.00  0.00     0.049 A 
ATOM     16  C   UNL     1      24.130   5.318  50.697  1.00  0.00     0.060 A 
ATOM     17  C   UNL     1      23.257   5.936  51.596  1.00  0.00     0.039 A 
BRANCH  15  18
ATOM     18  N   UNL     1      22.431   6.324  53.820  1.00  0.00    -0.306 N 
ATOM     19  C   UNL     1      22.124   6.036  55.149  1.00  0.00     0.116 A 
ATOM     20  C   UNL     1      21.609   7.331  53.505  1.00  0.00     0.204 A 
ATOM     21  C   UNL     1      21.150   6.881  55.549  1.00  0.00     0.056 A 
ATOM     22  N   UNL     1      20.864   7.705  54.516  1.00  0.00    -0.242 NA
ATOM     23  C   UNL     1      20.500   6.972  56.909  1.00  0.00     0.068 C 
ENDBRANCH  15  18
BRANCH  16  24
ATOM     24  C   UNL     1      24.073   5.603  49.231  1.00  0.00     0.416 C 
ATOM     25  F   UNL     1      24.882   6.597  48.812  1.00  0.00    -0.166 F 
ATOM     26  F   UNL     1      24.521   4.570  48.527  1.00  0.00    -0.166 F 
ATOM     27  F   UNL     1      22.849   6.006  48.833  1.00  0.00    -0.166 F 
ENDBRANCH  16  24
ENDBRANCH  10  12
ENDBRANCH   1   8
BRANCH   6  28
ATOM     28  N   UNL     1      30.670  -0.626  52.093  1.00  0.00    -0.324 N 
ATOM     29  H   UNL     1      30.547  -1.436  51.469  1.00  0.00     0.170 HD
BRANCH  28  30
ATOM     30  C   UNL     1      31.926  -0.036  52.241  1.00  0.00     0.227 A 
ATOM     31  N   UNL     1      32.302   0.925  53.074  1.00  0.00    -0.221 NA
ATOM     32  N   UNL     1      32.744  -0.567  51.295  1.00  0.00    -0.213 NA
ATOM     33  C   UNL     1      33.578   1.347  52.978  1.00  0.00     0.117 A 
ATOM     34  C   UNL     1      33.993  -0.094  51.216  1.00  0.00     0.077 A 
ATOM     35  C   UNL     1      34.428   0.871  52.055  1.00  0.00     0.049 A 
BRANCH  34  36
ATOM     36  C   UNL     1      34.858  -0.732  50.190  1.00  0.00     0.019 A 
ATOM     37  C   UNL     1      36.164  -0.279  49.944  1.00  0.00     0.013 A 
ATOM     38  C   UNL     1      34.378  -1.808  49.418  1.00  0.00     0.121 A 
ATOM     39  C   UNL     1      36.918  -0.898  48.955  1.00  0.00     0.021 A 
ATOM     40  N   UNL     1      35.097  -2.403  48.458  1.00  0.00    -0.264 NA
ATOM     41  C   UNL     1      36.352  -1.967  48.262  1.00  0.00     0.111 A 
ENDBRANCH  34  36
ENDBRANCH  28  30
ENDBRANCH   6  28
TORSDOF 7
ENDMDL
MODEL 2
REMARK VINA RESULT:   -13.314      2.209      3.680
REMARK INTER + INTRA:         -16.588
REMARK INTER:                 -15.402
REMARK INTRA:                  -1.186
REMARK CONF_INDEPENDENT:        2.088
REMARK UNBOUND:                -1.186
REMARK SMILES Cc1cn(-c2cc(NC(=O)c3ccc(C)c(Nc4nccc(-c5cccnc5)n4)c3)cc(C(F)(F)F)c2)cn1
REMARK SMILES IDX 11 1 12 2 13 3 14 4 15 5 16 6 30 7 9 8 10 9 8 10 7 12 6 13
REMARK SMILES IDX 31 14 5 15 32 16 37 17 4 18 3 19 38 20 2 21 39 22 1 23 33 24
REMARK SMILES IDX 34 25 35 26 36 27 17 28 18 30 19 31 29 32 20 33 22 34 21 35
REMARK SMILES IDX 23 36 24 37 28 38 25 39 27 40 26 41
REMARK H PARENT 8 11 17 29
ROOT
ATOM      1  C   UNL     1      28.025   1.330  53.533  1.00  0.00     0.042 A 
ATOM      2  C   UNL     1      27.747   0.758  54.784  1.00  0.00     0.014 A 
ATOM      3  C   UNL     1      28.489  -0.319  55.272  1.00  0.00     0.006 A 
ATOM      4  C   UNL     1      29.476  -0.918  54.505  1.00  0.00    -0.027 A 
ATOM      5  C   UNL     1      30.272  -2.096  55.047  1.00  0.00     0.046 C 
ATOM      6  C   UNL     1      29.687  -0.420  53.220  1.00  0.00     0.045 A 
ATOM      7  C   UNL     1      28.948   0.677  52.758  1.00  0.00     0.040 A 
ENDROOT
BRANCH   1   8
ATOM      8  C   UNL     1      27.214   2.381  52.888  1.00  0.00     0.255 C 
ATOM      9  O   UNL     1      27.541   2.670  51.762  1.00  0.00    -0.269 OA
ATOM     10  N   UNL     1      26.073   2.714  53.510  1.00  0.00    -0.322 N 
ATOM     11  H   UNL     1      25.885   2.261  54.416  1.00  0.00     0.170 HD
BRANCH  10  12
ATOM     12  C   UNL     1      25.121   3.612  53.043  1.00  0.00     0.044 A 
ATOM     13  C   UNL     1      25.016   3.907  51.661  1.00  0.00     0.052 A 
ATOM     14  C   UNL     1      24.318   4.341  53.947  1.00  0.00     0.039 A 
ATOM     15  C   UNL     1      24.055   4.802  51.181  1.00  0.00     0.049 A 
ATOM     16  C   UNL     1      23.325   5.235  53.455  1.00  0.00     0.060 A 
ATOM     17  C   UNL     1      23.235   5.474  52.082  1.00  0.00     0.039 A 
BRANCH  15  18
ATOM     18  N   UNL     1      23.915   5.069  49.811  1.00  0.00    -0.306 N 
ATOM     19  C   UNL     1      23.479   6.236  49.187  1.00  0.00     0.116 A 
ATOM     20  C   UNL     1      24.090   4.205  48.804  1.00  0.00     0.204 A 
ATOM     21  C   UNL     1      23.423   6.008  47.857  1.00  0.00     0.056 A 
ATOM     22  N   UNL     1      23.840   4.742  47.635  1.00  0.00    -0.242 NA
ATOM     23  C   UNL     1      23.027   6.972  46.765  1.00  0.00     0.068 C 
ENDBRANCH  15  18
BRANCH  16  24
ATOM     24  C   UNL     1      22.448   5.948  54.432  1.00  0.00     0.416 C 
ATOM     25  F   UNL     1      21.501   5.184  55.011  1.00  0.00    -0.166 F 
ATOM     26  F   UNL     1      23.146   6.365  55.483  1.00  0.00    -0.166 F 
ATOM     27  F   UNL     1      21.741   6.942  53.856  1.00  0.00    -0.166 F 
ENDBRANCH  16  24
ENDBRANCH  10  12
ENDBRANCH   1   8
BRANCH   6  28
ATOM     28  N   UNL     1      30.782  -0.899  52.491  1.00  0.00    -0.324 N 
ATOM     29  H   UNL     1      30.694  -1.755  51.924  1.00  0.00     0.170 HD
BRANCH  28  30
ATOM     30  C   UNL     1      31.994  -0.208  52.537  1.00  0.00     0.227 A 
ATOM     31  N   UNL     1      32.345   0.804  53.320  1.00  0.00    -0.221 NA
ATOM     32  N   UNL     1      32.787  -0.701  51.551  1.00  0.00    -0.213 NA
ATOM     33  C   UNL     1      33.573   1.322  53.126  1.00  0.00     0.117 A 
ATOM     34  C   UNL     1      33.986  -0.133  51.376  1.00  0.00     0.077 A 
ATOM     35  C   UNL     1      34.397   0.888  52.159  1.00  0.00     0.049 A 
BRANCH  34  36
ATOM     36  C   UNL     1      34.830  -0.731  50.308  1.00  0.00     0.019 A 
ATOM     37  C   UNL     1      36.222  -0.547  50.281  1.00  0.00     0.013 A 
ATOM     38  C   UNL     1      34.246  -1.493  49.278  1.00  0.00     0.121 A 
ATOM     39  C   UNL     1      36.957  -1.108  49.245  1.00  0.00     0.021 A 
ATOM     40  N   UNL     1      34.948  -2.030  48.272  1.00  0.00    -0.264 NA
ATOM     41  C   UNL     1      36.280  -1.859  48.284  1.00  0.00     0.111 A 
ENDBRANCH  34  36
ENDBRANCH  28  30
ENDBRANCH   6  28
TORSDOF 7
ENDMDL
MODEL 3
REMARK VINA RESULT:   -12.345      1.256      1.907
REMARK INTER + INTRA:         -15.854
REMARK INTER:                 -14.433
REMARK INTRA:                  -1.421
REMARK CONF_INDEPENDENT:        2.088
REMARK UNBOUND:                -1.421
REMARK SMILES Cc1cn(-c2cc(NC(=O)c3ccc(C)c(Nc4nccc(-c5cccnc5)n4)c3)cc(C(F)(F)F)c2)cn1
REMARK SMILES IDX 11 1 12 2 13 3 14 4 15 5 16 6 30 7 9 8 10 9 8 10 7 12 6 13
REMARK SMILES IDX 31 14 5 15 32 16 37 17 4 18 3 19 38 20 2 21 39 22 1 23 33 24
REMARK SMILES IDX 34 25 35 26 36 27 17 28 18 30 19 31 29 32 20 33 22 34 21 35
REMARK SMILES IDX 23 36 24 37 28 38 25 39 27 40 26 41
REMARK H PARENT 8 11 17 29
ROOT
ATOM      1  C   UNL     1      28.022   1.909  53.062  1.00  0.00     0.042 A 
ATOM      2  C   UNL     1      27.653   0.589  53.361  1.00  0.00     0.014 A 
ATOM      3  C   UNL     1      28.532  -0.283  54.004  1.00  0.00     0.006 A 
ATOM      4  C   UNL     1      29.832   0.094  54.299  1.00  0.00    -0.027 A 
ATOM      5  C   UNL     1      30.782  -0.870  54.994  1.00  0.00     0.046 C 
ATOM      6  C   UNL     1      30.237   1.370  53.911  1.00  0.00     0.045 A 
ATOM      7  C   UNL     1      29.332   2.240  53.289  1.00  0.00     0.040 A 
ENDROOT
BRANCH   1   8
ATOM      8  C   UNL     1      27.207   2.855  52.275  1.00  0.00     0.255 C 
ATOM      9  O   UNL     1      27.428   2.868  51.089  1.00  0.00    -0.269 OA
ATOM     10  N   UNL     1      26.157   3.401  52.908  1.00  0.00    -0.322 N 
ATOM     11  H   UNL     1      26.042   3.171  53.905  1.00  0.00     0.170 HD
BRANCH  10  12
ATOM     12  C   UNL     1      25.213   4.248  52.342  1.00  0.00     0.044 A 
ATOM     13  C   UNL     1      24.330   5.001  53.155  1.00  0.00     0.052 A 
ATOM     14  C   UNL     1      25.030   4.285  50.942  1.00  0.00     0.039 A 
ATOM     15  C   UNL     1      23.384   5.863  52.595  1.00  0.00     0.049 A 
ATOM     16  C   UNL     1      24.079   5.180  50.373  1.00  0.00     0.060 A 
ATOM     17  C   UNL     1      23.250   5.928  51.212  1.00  0.00     0.039 A 
BRANCH  15  18
ATOM     18  N   UNL     1      22.534   6.645  53.392  1.00  0.00    -0.306 N 
ATOM     19  C   UNL     1      22.021   6.368  54.658  1.00  0.00     0.116 A 
ATOM     20  C   UNL     1      21.956   7.803  53.051  1.00  0.00     0.204 A 
ATOM     21  C   UNL     1      21.180   7.368  55.000  1.00  0.00     0.056 A 
ATOM     22  N   UNL     1      21.178   8.271  53.995  1.00  0.00    -0.242 NA
ATOM     23  C   UNL     1      20.399   7.527  56.283  1.00  0.00     0.068 C 
ENDBRANCH  15  18
BRANCH  16  24
ATOM     24  C   UNL     1      23.949   5.243  48.885  1.00  0.00     0.416 C 
ATOM     25  F   UNL     1      24.461   4.187  48.223  1.00  0.00    -0.166 F 
ATOM     26  F   UNL     1      22.674   5.206  48.517  1.00  0.00    -0.166 F 
ATOM     27  F   UNL     1      24.608   6.294  48.356  1.00  0.00    -0.166 F 
ENDBRANCH  16  24
ENDBRANCH  10  12
ENDBRANCH   1   8
BRANCH   6  28
ATOM     28  N   UNL     1      31.488   1.832  54.341  1.00  0.00    -0.324 N 
ATOM     29  H   UNL     1      31.553   2.535  55.090  1.00  0.00     0.170 HD
BRANCH  28  30
ATOM     30  C   UNL     1      32.647   1.330  53.745  1.00  0.00     0.227 A 
ATOM     31  N   UNL     1      33.913   1.528  54.089  1.00  0.00    -0.221 NA
ATOM     32  N   UNL     1      32.273   0.626  52.645  1.00  0.00    -0.213 NA
ATOM     33  C   UNL     1      34.850   0.955  53.309  1.00  0.00     0.117 A 
ATOM     34  C   UNL     1      33.240   0.103  51.883  1.00  0.00     0.077 A 
ATOM     35  C   UNL     1      34.543   0.261  52.201  1.00  0.00     0.049 A 
BRANCH  34  36
ATOM     36  C   UNL     1      32.778  -0.688  50.712  1.00  0.00     0.019 A 
ATOM     37  C   UNL     1      31.413  -0.884  50.450  1.00  0.00     0.013 A 
ATOM     38  C   UNL     1      33.709  -1.278  49.835  1.00  0.00     0.121 A 
ATOM     39  C   UNL     1      31.040  -1.653  49.355  1.00  0.00     0.021 A 
ATOM     40  N   UNL     1      33.356  -2.027  48.783  1.00  0.00    -0.264 NA
ATOM     41  C   UNL     1      32.043  -2.177  48.541  1.00  0.00     0.111 A 
ENDBRANCH  34  36
ENDBRANCH  28  30
ENDBRANCH   6  28
TORSDOF 7
ENDMDL
MODEL 4
REMARK VINA RESULT:   -12.173      1.529      3.549
REMARK INTER + INTRA:         -15.863
REMARK INTER:                 -14.261
REMARK INTRA:                  -1.601
REMARK CONF_INDEPENDENT:        2.088
REMARK UNBOUND:                -1.601
REMARK SMILES Cc1cn(-c2cc(NC(=O)c3ccc(C)c(Nc4nccc(-c5cccnc5)n4)c3)cc(C(F)(F)F)c2)cn1
REMARK SMILES IDX 11 1 12 2 13 3 14 4 15 5 16 6 30 7 9 8 10 9 8 10 7 12 6 13
REMARK SMILES IDX 31 14 5 15 32 16 37 17 4 18 3 19 38 20 2 21 39 22 1 23 33 24
REMARK SMILES IDX 34 25 35 26 36 27 17 28 18 30 19 31 29 32 20 33 22 34 21 35
REMARK SMILES IDX 23 36 24 37 28 38 25 39 27 40 26 41
REMARK H PARENT 8 11 17 29
ROOT
ATOM      1  C   UNL     1      27.588   1.802  52.903  1.00  0.00     0.042 A 
ATOM      2  C   UNL     1      27.335   1.229  54.158  1.00  0.00     0.014 A 
ATOM      3  C   UNL     1      28.039   0.108  54.601  1.00  0.00     0.006 A 
ATOM      4  C   UNL     1      28.958  -0.532  53.784  1.00  0.00    -0.027 A 
ATOM      5  C   UNL     1      29.713  -1.757  54.277  1.00  0.00     0.046 C 
ATOM      6  C   UNL     1      29.138  -0.028  52.497  1.00  0.00     0.045 A 
ATOM      7  C   UNL     1      28.440   1.112  52.081  1.00  0.00     0.040 A 
ENDROOT
BRANCH   1   8
ATOM      8  C   UNL     1      26.806   2.903  52.306  1.00  0.00     0.255 C 
ATOM      9  O   UNL     1      27.063   3.156  51.154  1.00  0.00    -0.269 OA
ATOM     10  N   UNL     1      25.745   3.325  53.010  1.00  0.00    -0.322 N 
ATOM     11  H   UNL     1      25.597   2.897  53.935  1.00  0.00     0.170 HD
BRANCH  10  12
ATOM     12  C   UNL     1      24.826   4.285  52.604  1.00  0.00     0.044 A 
ATOM     13  C   UNL     1      23.942   4.884  53.535  1.00  0.00     0.052 A 
ATOM     14  C   UNL     1      24.672   4.598  51.236  1.00  0.00     0.039 A 
ATOM     15  C   UNL     1      23.021   5.858  53.139  1.00  0.00     0.049 A 
ATOM     16  C   UNL     1      23.749   5.607  50.838  1.00  0.00     0.060 A 
ATOM     17  C   UNL     1      22.916   6.194  51.793  1.00  0.00     0.039 A 
BRANCH  15  18
ATOM     18  N   UNL     1      22.170   6.487  54.060  1.00  0.00    -0.306 N 
ATOM     19  C   UNL     1      21.942   6.172  55.398  1.00  0.00     0.116 A 
ATOM     20  C   UNL     1      21.316   7.486  53.809  1.00  0.00     0.204 A 
ATOM     21  C   UNL     1      20.978   6.995  55.867  1.00  0.00     0.056 A 
ATOM     22  N   UNL     1      20.623   7.831  54.866  1.00  0.00    -0.242 NA
ATOM     23  C   UNL     1      20.403   7.052  57.262  1.00  0.00     0.068 C 
ENDBRANCH  15  18
BRANCH  16  24
ATOM     24  C   UNL     1      23.649   5.962  49.390  1.00  0.00     0.416 C 
ATOM     25  F   UNL     1      24.754   6.524  48.863  1.00  0.00    -0.166 F 
ATOM     26  F   UNL     1      23.510   4.874  48.641  1.00  0.00    -0.166 F 
ATOM     27  F   UNL     1      22.687   6.878  49.151  1.00  0.00    -0.166 F 
ENDBRANCH  16  24
ENDBRANCH  10  12
ENDBRANCH   1   8
BRANCH   6  28
ATOM     28  N   UNL     1      30.174  -0.555  51.714  1.00  0.00    -0.324 N 
ATOM     29  H   UNL     1      29.980  -1.299  51.029  1.00  0.00     0.170 HD
BRANCH  28  30
ATOM     30  C   UNL     1      31.471  -0.063  51.871  1.00  0.00     0.227 A 
ATOM     31  N   UNL     1      32.581  -0.428  51.241  1.00  0.00    -0.221 NA
ATOM     32  N   UNL     1      31.448   0.847  52.878  1.00  0.00    -0.213 NA
ATOM     33  C   UNL     1      33.720   0.183  51.619  1.00  0.00     0.117 A 
ATOM     34  C   UNL     1      32.610   1.404  53.239  1.00  0.00     0.077 A 
ATOM     35  C   UNL     1      33.763   1.079  52.617  1.00  0.00     0.049 A 
BRANCH  34  36
ATOM     36  C   UNL     1      32.526   2.420  54.321  1.00  0.00     0.019 A 
ATOM     37  C   UNL     1      31.452   2.444  55.225  1.00  0.00     0.013 A 
ATOM     38  C   UNL     1      33.525   3.403  54.459  1.00  0.00     0.121 A 
ATOM     39  C   UNL     1      31.413   3.432  56.201  1.00  0.00     0.021 A 
ATOM     40  N   UNL     1      33.489   4.362  55.392  1.00  0.00    -0.264 NA
ATOM     41  C   UNL     1      32.464   4.346  56.260  1.00  0.00     0.111 A 
ENDBRANCH  34  36
ENDBRANCH  28  30
ENDBRANCH   6  28
TORSDOF 7
ENDMDL
MODEL 5
REMARK VINA RESULT:   -11.580      2.899      4.375
REMARK INTER + INTRA:         -14.579
REMARK INTER:                 -13.669
REMARK INTRA:                  -0.911
REMARK CONF_INDEPENDENT:        2.088
REMARK UNBOUND:                -0.911
REMARK SMILES Cc1cn(-c2cc(NC(=O)c3ccc(C)c(Nc4nccc(-c5cccnc5)n4)c3)cc(C(F)(F)F)c2)cn1
REMARK SMILES IDX 11 1 12 2 13 3 14 4 15 5 16 6 30 7 9 8 10 9 8 10 7 12 6 13
REMARK SMILES IDX 31 14 5 15 32 16 37 17 4 18 3 19 38 20 2 21 39 22 1 23 33 24
REMARK SMILES IDX 34 25 35 26 36 27 17 28 18 30 19 31 29 32 20 33 22 34 21 35
REMARK SMILES IDX 23 36 24 37 28 38 25 39 27 40 26 41
REMARK H PARENT 8 11 17 29
ROOT
ATOM      1  C   UNL     1      28.657   2.827  53.689  1.00  0.00     0.042 A 
ATOM      2  C   UNL     1      28.977   3.594  54.819  1.00  0.00     0.014 A 
ATOM      3  C   UNL     1      30.274   3.625  55.333  1.00  0.00     0.006 A 
ATOM      4  C   UNL     1      31.278   2.834  54.798  1.00  0.00    -0.027 A 
ATOM      5  C   UNL     1      32.686   2.873  55.374  1.00  0.00     0.046 C 
ATOM      6  C   UNL     1      30.941   1.991  53.741  1.00  0.00     0.045 A 
ATOM      7  C   UNL     1      29.640   1.993  53.223  1.00  0.00     0.040 A 
ENDROOT
BRANCH   1   8
ATOM      8  C   UNL     1      27.293   2.636  53.158  1.00  0.00     0.255 C 
ATOM      9  O   UNL     1      26.829   1.532  53.304  1.00  0.00    -0.269 OA
ATOM     10  N   UNL     1      26.634   3.751  52.807  1.00  0.00    -0.322 N 
ATOM     11  H   UNL     1      27.150   4.639  52.873  1.00  0.00     0.170 HD
BRANCH  10  12
ATOM     12  C   UNL     1      25.319   3.816  52.364  1.00  0.00     0.044 A 
ATOM     13  C   UNL     1      24.911   3.127  51.195  1.00  0.00     0.052 A 
ATOM     14  C   UNL     1      24.388   4.666  53.000  1.00  0.00     0.039 A 
ATOM     15  C   UNL     1      23.588   3.179  50.746  1.00  0.00     0.049 A 
ATOM     16  C   UNL     1      23.036   4.700  52.555  1.00  0.00     0.060 A 
ATOM     17  C   UNL     1      22.669   3.981  51.415  1.00  0.00     0.039 A 
BRANCH  15  18
ATOM     18  N   UNL     1      23.164   2.467  49.614  1.00  0.00    -0.306 N 
ATOM     19  C   UNL     1      22.334   1.349  49.542  1.00  0.00     0.116 A 
ATOM     20  C   UNL     1      23.554   2.667  48.350  1.00  0.00     0.204 A 
ATOM     21  C   UNL     1      22.272   0.952  48.252  1.00  0.00     0.056 A 
ATOM     22  N   UNL     1      23.016   1.809  47.518  1.00  0.00    -0.242 NA
ATOM     23  C   UNL     1      21.487  -0.199  47.672  1.00  0.00     0.068 C 
ENDBRANCH  15  18
BRANCH  16  24
ATOM     24  C   UNL     1      22.057   5.563  53.283  1.00  0.00     0.416 C 
ATOM     25  F   UNL     1      22.574   6.692  53.808  1.00  0.00    -0.166 F 
ATOM     26  F   UNL     1      21.135   6.041  52.457  1.00  0.00    -0.166 F 
ATOM     27  F   UNL     1      21.519   4.939  54.352  1.00  0.00    -0.166 F 
ENDBRANCH  16  24
ENDBRANCH  10  12
ENDBRANCH   1   8
BRANCH   6  28
ATOM     28  N   UNL     1      31.970   1.306  53.081  1.00  0.00    -0.324 N 
ATOM     29  H   UNL     1      32.948   1.427  53.378  1.00  0.00     0.170 HD
BRANCH  28  30
ATOM     30  C   UNL     1      31.658   0.459  52.016  1.00  0.00     0.227 A 
ATOM     31  N   UNL     1      30.467   0.041  51.606  1.00  0.00    -0.221 NA
ATOM     32  N   UNL     1      32.827   0.035  51.471  1.00  0.00    -0.213 NA
ATOM     33  C   UNL     1      30.451  -0.818  50.569  1.00  0.00     0.117 A 
ATOM     34  C   UNL     1      32.761  -0.843  50.463  1.00  0.00     0.077 A 
ATOM     35  C   UNL     1      31.572  -1.285  49.998  1.00  0.00     0.049 A 
BRANCH  34  36
ATOM     36  C   UNL     1      34.066  -1.249  49.878  1.00  0.00     0.019 A 
ATOM     37  C   UNL     1      35.142  -0.352  49.786  1.00  0.00     0.013 A 
ATOM     38  C   UNL     1      34.252  -2.555  49.383  1.00  0.00     0.121 A 
ATOM     39  C   UNL     1      36.330  -0.779  49.207  1.00  0.00     0.021 A 
ATOM     40  N   UNL     1      35.393  -2.970  48.817  1.00  0.00    -0.264 NA
ATOM     41  C   UNL     1      36.413  -2.099  48.765  1.00  0.00     0.111 A 
ENDBRANCH  34  36
ENDBRANCH  28  30
ENDBRANCH   6  28
TORSDOF 7
ENDMDL
MODEL 6
REMARK VINA RESULT:   -11.477      3.749     11.841
REMARK INTER + INTRA:         -14.730
REMARK INTER:                 -13.566
REMARK INTRA:                  -1.164
REMARK CONF_INDEPENDENT:        2.088
REMARK UNBOUND:                -1.164
REMARK SMILES Cc1cn(-c2cc(NC(=O)c3ccc(C)c(Nc4nccc(-c5cccnc5)n4)c3)cc(C(F)(F)F)c2)cn1
REMARK SMILES IDX 11 1 12 2 13 3 14 4 15 5 16 6 30 7 9 8 10 9 8 10 7 12 6 13
REMARK SMILES IDX 31 14 5 15 32 16 37 17 4 18 3 19 38 20 2 21 39 22 1 23 33 24
REMARK SMILES IDX 34 25 35 26 36 27 17 28 18 30 19 31 29 32 20 33 22 34 21 35
REMARK SMILES IDX 23 36 24 37 28 38 25 39 27 40 26 41
REMARK H PARENT 8 11 17 29
ROOT
ATOM      1  C   UNL     1      25.900   3.846  51.972  1.00  0.00     0.042 A 
ATOM      2  C   UNL     1      25.281   4.316  50.804  1.00  0.00     0.014 A 
ATOM      3  C   UNL     1      24.162   5.147  50.858  1.00  0.00     0.006 A 
ATOM      4  C   UNL     1      23.567   5.473  52.066  1.00  0.00    -0.027 A 
ATOM      5  C   UNL     1      22.341   6.375  52.110  1.00  0.00     0.046 C 
ATOM      6  C   UNL     1      24.115   4.925  53.225  1.00  0.00     0.045 A 
ATOM      7  C   UNL     1      25.254   4.114  53.151  1.00  0.00     0.040 A 
ENDROOT
BRANCH   1   8
ATOM      8  C   UNL     1      27.004   2.867  52.007  1.00  0.00     0.255 C 
ATOM      9  O   UNL     1      27.700   2.835  51.021  1.00  0.00    -0.269 OA
ATOM     10  N   UNL     1      27.265   2.311  53.200  1.00  0.00    -0.322 N 
ATOM     11  H   UNL     1      26.638   2.559  53.978  1.00  0.00     0.170 HD
BRANCH  10  12
ATOM     12  C   UNL     1      28.304   1.433  53.481  1.00  0.00     0.044 A 
ATOM     13  C   UNL     1      29.612   1.673  52.990  1.00  0.00     0.052 A 
ATOM     14  C   UNL     1      28.055   0.220  54.160  1.00  0.00     0.039 A 
ATOM     15  C   UNL     1      30.665   0.800  53.276  1.00  0.00     0.049 A 
ATOM     16  C   UNL     1      29.134  -0.656  54.469  1.00  0.00     0.060 A 
ATOM     17  C   UNL     1      30.414  -0.366  53.991  1.00  0.00     0.039 A 
BRANCH  15  18
ATOM     18  N   UNL     1      31.972   1.050  52.831  1.00  0.00    -0.306 N 
ATOM     19  C   UNL     1      32.607   0.591  51.678  1.00  0.00     0.116 A 
ATOM     20  C   UNL     1      32.926   1.723  53.484  1.00  0.00     0.204 A 
ATOM     21  C   UNL     1      33.890   1.015  51.706  1.00  0.00     0.056 A 
ATOM     22  N   UNL     1      34.061   1.749  52.828  1.00  0.00    -0.242 NA
ATOM     23  C   UNL     1      34.966   0.787  50.672  1.00  0.00     0.068 C 
ENDBRANCH  15  18
BRANCH  16  24
ATOM     24  C   UNL     1      28.851  -1.904  55.241  1.00  0.00     0.416 C 
ATOM     25  F   UNL     1      28.016  -2.771  54.636  1.00  0.00    -0.166 F 
ATOM     26  F   UNL     1      29.950  -2.635  55.385  1.00  0.00    -0.166 F 
ATOM     27  F   UNL     1      28.242  -1.651  56.418  1.00  0.00    -0.166 F 
ENDBRANCH  16  24
ENDBRANCH  10  12
ENDBRANCH   1   8
BRANCH   6  28
ATOM     28  N   UNL     1      23.634   5.368  54.464  1.00  0.00    -0.324 N 
ATOM     29  H   UNL     1      22.686   5.113  54.774  1.00  0.00     0.170 HD
BRANCH  28  30
ATOM     30  C   UNL     1      24.452   6.158  55.275  1.00  0.00     0.227 A 
ATOM     31  N   UNL     1      25.751   6.403  55.161  1.00  0.00    -0.221 NA
ATOM     32  N   UNL     1      23.695   6.607  56.309  1.00  0.00    -0.213 NA
ATOM     33  C   UNL     1      26.308   7.173  56.115  1.00  0.00     0.117 A 
ATOM     34  C   UNL     1      24.300   7.341  57.250  1.00  0.00     0.077 A 
ATOM     35  C   UNL     1      25.616   7.633  57.168  1.00  0.00     0.049 A 
BRANCH  34  36
ATOM     36  C   UNL     1      23.421   7.838  58.341  1.00  0.00     0.019 A 
ATOM     37  C   UNL     1      23.607   9.106  58.915  1.00  0.00     0.013 A 
ATOM     38  C   UNL     1      22.379   7.034  58.842  1.00  0.00     0.121 A 
ATOM     39  C   UNL     1      22.771   9.507  59.950  1.00  0.00     0.021 A 
ATOM     40  N   UNL     1      21.575   7.413  59.844  1.00  0.00    -0.264 NA
ATOM     41  C   UNL     1      21.759   8.640  60.357  1.00  0.00     0.111 A 
ENDBRANCH  34  36
ENDBRANCH  28  30
ENDBRANCH   6  28
TORSDOF 7
ENDMDL
MODEL 7
REMARK VINA RESULT:   -11.460      2.984      4.043
REMARK INTER + INTRA:         -14.600
REMARK INTER:                 -13.549
REMARK INTRA:                  -1.052
REMARK CONF_INDEPENDENT:        2.088
REMARK UNBOUND:                -1.052
REMARK SMILES Cc1cn(-c2cc(NC(=O)c3ccc(C)c(Nc4nccc(-c5cccnc5)n4)c3)cc(C(F)(F)F)c2)cn1
REMARK SMILES IDX 11 1 12 2 13 3 14 4 15 5 16 6 30 7 9 8 10 9 8 10 7 12 6 13
REMARK SMILES IDX 31 14 5 15 32 16 37 17 4 18 3 19 38 20 2 21 39 22 1 23 33 24
REMARK SMILES IDX 34 25 35 26 36 27 17 28 18 30 19 31 29 32 20 33 22 34 21 35
REMARK SMILES IDX 23 36 24 37 28 38 25 39 27 40 26 41
REMARK H PARENT 8 11 17 29
ROOT
ATOM      1  C   UNL     1      28.136   2.335  52.680  1.00  0.00     0.042 A 
ATOM      2  C   UNL     1      28.158   3.147  53.823  1.00  0.00     0.014 A 
ATOM      3  C   UNL     1      29.161   3.019  54.786  1.00  0.00     0.006 A 
ATOM      4  C   UNL     1      30.126   2.029  54.691  1.00  0.00    -0.027 A 
ATOM      5  C   UNL     1      31.209   1.897  55.753  1.00  0.00     0.046 C 
ATOM      6  C   UNL     1      30.048   1.152  53.611  1.00  0.00     0.045 A 
ATOM      7  C   UNL     1      29.049   1.313  52.642  1.00  0.00     0.040 A 
ENDROOT
BRANCH   1   8
ATOM      8  C   UNL     1      27.049   2.315  51.681  1.00  0.00     0.255 C 
ATOM      9  O   UNL     1      26.746   1.223  51.266  1.00  0.00    -0.269 OA
ATOM     10  N   UNL     1      26.360   3.456  51.534  1.00  0.00    -0.322 N 
ATOM     11  H   UNL     1      26.682   4.270  52.076  1.00  0.00     0.170 HD
BRANCH  10  12
ATOM     12  C   UNL     1      25.252   3.641  50.717  1.00  0.00     0.044 A 
ATOM     13  C   UNL     1      24.483   2.536  50.274  1.00  0.00     0.052 A 
ATOM     14  C   UNL     1      24.938   4.921  50.211  1.00  0.00     0.039 A 
ATOM     15  C   UNL     1      23.360   2.712  49.460  1.00  0.00     0.049 A 
ATOM     16  C   UNL     1      23.781   5.101  49.400  1.00  0.00     0.060 A 
ATOM     17  C   UNL     1      23.033   3.987  49.012  1.00  0.00     0.039 A 
BRANCH  15  18
ATOM     18  N   UNL     1      22.568   1.629  49.051  1.00  0.00    -0.306 N 
ATOM     19  C   UNL     1      22.239   0.470  49.753  1.00  0.00     0.116 A 
ATOM     20  C   UNL     1      22.029   1.442  47.840  1.00  0.00     0.204 A 
ATOM     21  C   UNL     1      21.526  -0.332  48.932  1.00  0.00     0.056 A 
ATOM     22  N   UNL     1      21.377   0.309  47.751  1.00  0.00    -0.242 NA
ATOM     23  C   UNL     1      20.929  -1.683  49.242  1.00  0.00     0.068 C 
ENDBRANCH  15  18
BRANCH  16  24
ATOM     24  C   UNL     1      23.438   6.477  48.928  1.00  0.00     0.416 C 
ATOM     25  F   UNL     1      22.144   6.823  49.074  1.00  0.00    -0.166 F 
ATOM     26  F   UNL     1      24.054   7.399  49.658  1.00  0.00    -0.166 F 
ATOM     27  F   UNL     1      23.657   6.635  47.606  1.00  0.00    -0.166 F 
ENDBRANCH  16  24
ENDBRANCH  10  12
ENDBRANCH   1   8
BRANCH   6  28
ATOM     28  N   UNL     1      31.101   0.251  53.406  1.00  0.00    -0.324 N 
ATOM     29  H   UNL     1      30.952  -0.759  53.536  1.00  0.00     0.170 HD
BRANCH  28  30
ATOM     30  C   UNL     1      32.354   0.734  53.024  1.00  0.00     0.227 A 
ATOM     31  N   UNL     1      32.973   1.841  53.414  1.00  0.00    -0.221 NA
ATOM     32  N   UNL     1      32.849  -0.106  52.079  1.00  0.00    -0.213 NA
ATOM     33  C   UNL     1      34.170   2.096  52.851  1.00  0.00     0.117 A 
ATOM     34  C   UNL     1      34.026   0.206  51.525  1.00  0.00     0.077 A 
ATOM     35  C   UNL     1      34.704   1.312  51.901  1.00  0.00     0.049 A 
BRANCH  34  36
ATOM     36  C   UNL     1      34.540  -0.763  50.522  1.00  0.00     0.019 A 
ATOM     37  C   UNL     1      35.917  -0.927  50.296  1.00  0.00     0.013 A 
ATOM     38  C   UNL     1      33.650  -1.538  49.754  1.00  0.00     0.121 A 
ATOM     39  C   UNL     1      36.339  -1.829  49.328  1.00  0.00     0.021 A 
ATOM     40  N   UNL     1      34.050  -2.403  48.814  1.00  0.00    -0.264 NA
ATOM     41  C   UNL     1      35.372  -2.559  48.636  1.00  0.00     0.111 A 
ENDBRANCH  34  36
ENDBRANCH  28  30
ENDBRANCH   6  28
TORSDOF 7
ENDMDL
MODEL 8
REMARK VINA RESULT:   -11.456      4.095     11.199
REMARK INTER + INTRA:         -14.730
REMARK INTER:                 -13.544
REMARK INTRA:                  -1.186
REMARK CONF_INDEPENDENT:        2.088
REMARK UNBOUND:                -1.186
REMARK SMILES Cc1cn(-c2cc(NC(=O)c3ccc(C)c(Nc4nccc(-c5cccnc5)n4)c3)cc(C(F)(F)F)c2)cn1
REMARK SMILES IDX 11 1 12 2 13 3 14 4 15 5 16 6 30 7 9 8 10 9 8 10 7 12 6 13
REMARK SMILES IDX 31 14 5 15 32 16 37 17 4 18 3 19 38 20 2 21 39 22 1 23 33 24
REMARK SMILES IDX 34 25 35 26 36 27 17 28 18 30 19 31 29 32 20 33 22 34 21 35
REMARK SMILES IDX 23 36 24 37 28 38 25 39 27 40 26 41
REMARK H PARENT 8 11 17 29
ROOT
ATOM      1  C   UNL     1      25.739   3.849  52.067  1.00  0.00     0.042 A 
ATOM      2  C   UNL     1      25.131   4.317  50.893  1.00  0.00     0.014 A 
ATOM      3  C   UNL     1      23.992   5.122  50.935  1.00  0.00     0.006 A 
ATOM      4  C   UNL     1      23.368   5.421  52.135  1.00  0.00    -0.027 A 
ATOM      5  C   UNL     1      22.121   6.294  52.165  1.00  0.00     0.046 C 
ATOM      6  C   UNL     1      23.907   4.873  53.298  1.00  0.00     0.045 A 
ATOM      7  C   UNL     1      25.065   4.089  53.236  1.00  0.00     0.040 A 
ENDROOT
BRANCH   1   8
ATOM      8  C   UNL     1      26.864   2.895  52.112  1.00  0.00     0.255 C 
ATOM      9  O   UNL     1      27.567   2.875  51.131  1.00  0.00    -0.269 OA
ATOM     10  N   UNL     1      27.130   2.349  53.308  1.00  0.00    -0.322 N 
ATOM     11  H   UNL     1      26.493   2.585  54.082  1.00  0.00     0.170 HD
BRANCH  10  12
ATOM     12  C   UNL     1      28.187   1.496  53.599  1.00  0.00     0.044 A 
ATOM     13  C   UNL     1      29.501   1.787  53.156  1.00  0.00     0.052 A 
ATOM     14  C   UNL     1      27.955   0.258  54.238  1.00  0.00     0.039 A 
ATOM     15  C   UNL     1      30.572   0.939  53.452  1.00  0.00     0.049 A 
ATOM     16  C   UNL     1      29.050  -0.594  54.558  1.00  0.00     0.060 A 
ATOM     17  C   UNL     1      30.335  -0.253  54.129  1.00  0.00     0.039 A 
BRANCH  15  18
ATOM     18  N   UNL     1      31.883   1.240  53.054  1.00  0.00    -0.306 N 
ATOM     19  C   UNL     1      32.628   0.696  52.009  1.00  0.00     0.116 A 
ATOM     20  C   UNL     1      32.737   2.066  53.669  1.00  0.00     0.204 A 
ATOM     21  C   UNL     1      33.870   1.226  52.055  1.00  0.00     0.056 A 
ATOM     22  N   UNL     1      33.908   2.105  53.081  1.00  0.00    -0.242 NA
ATOM     23  C   UNL     1      35.027   0.962  51.123  1.00  0.00     0.068 C 
ENDBRANCH  15  18
BRANCH  16  24
ATOM     24  C   UNL     1      28.783  -1.869  55.289  1.00  0.00     0.416 C 
ATOM     25  F   UNL     1      27.889  -2.687  54.699  1.00  0.00    -0.166 F 
ATOM     26  F   UNL     1      29.869  -2.633  55.329  1.00  0.00    -0.166 F 
ATOM     27  F   UNL     1      28.255  -1.659  56.513  1.00  0.00    -0.166 F 
ENDBRANCH  16  24
ENDBRANCH  10  12
ENDBRANCH   1   8
BRANCH   6  28
ATOM     28  N   UNL     1      23.393   5.292  54.532  1.00  0.00    -0.324 N 
ATOM     29  H   UNL     1      22.703   4.713  55.030  1.00  0.00     0.170 HD
BRANCH  28  30
ATOM     30  C   UNL     1      23.826   6.500  55.082  1.00  0.00     0.227 A 
ATOM     31  N   UNL     1      23.783   7.717  54.555  1.00  0.00    -0.221 NA
ATOM     32  N   UNL     1      24.404   6.224  56.279  1.00  0.00    -0.213 NA
ATOM     33  C   UNL     1      24.314   8.713  55.289  1.00  0.00     0.117 A 
ATOM     34  C   UNL     1      24.947   7.242  56.957  1.00  0.00     0.077 A 
ATOM     35  C   UNL     1      24.912   8.501  56.471  1.00  0.00     0.049 A 
BRANCH  34  36
ATOM     36  C   UNL     1      25.535   6.894  58.277  1.00  0.00     0.019 A 
ATOM     37  C   UNL     1      24.737   6.750  59.423  1.00  0.00     0.013 A 
ATOM     38  C   UNL     1      26.926   6.712  58.415  1.00  0.00     0.121 A 
ATOM     39  C   UNL     1      25.345   6.448  60.635  1.00  0.00     0.021 A 
ATOM     40  N   UNL     1      27.518   6.429  59.582  1.00  0.00    -0.264 NA
ATOM     41  C   UNL     1      26.728   6.272  60.657  1.00  0.00     0.111 A 
ENDBRANCH  34  36
ENDBRANCH  28  30
ENDBRANCH   6  28
TORSDOF 7
ENDMDL
MODEL 9
REMARK VINA RESULT:   -11.456      2.139      3.164
REMARK INTER + INTRA:         -14.856
REMARK INTER:                 -13.544
REMARK INTRA:                  -1.312
REMARK CONF_INDEPENDENT:        2.088
REMARK UNBOUND:                -1.312
REMARK SMILES Cc1cn(-c2cc(NC(=O)c3ccc(C)c(Nc4nccc(-c5cccnc5)n4)c3)cc(C(F)(F)F)c2)cn1
REMARK SMILES IDX 11 1 12 2 13 3 14 4 15 5 16 6 30 7 9 8 10 9 8 10 7 12 6 13
REMARK SMILES IDX 31 14 5 15 32 16 37 17 4 18 3 19 38 20 2 21 39 22 1 23 33 24
REMARK SMILES IDX 34 25 35 26 36 27 17 28 18 30 19 31 29 32 20 33 22 34 21 35
REMARK SMILES IDX 23 36 24 37 28 38 25 39 27 40 26 41
REMARK H PARENT 8 11 17 29
ROOT
ATOM      1  C   UNL     1      26.938   2.427  52.378  1.00  0.00     0.042 A 
ATOM      2  C   UNL     1      27.093   1.058  52.114  1.00  0.00     0.014 A 
ATOM      3  C   UNL     1      27.861   0.240  52.944  1.00  0.00     0.006 A 
ATOM      4  C   UNL     1      28.568   0.764  54.015  1.00  0.00    -0.027 A 
ATOM      5  C   UNL     1      29.408  -0.138  54.907  1.00  0.00     0.046 C 
ATOM      6  C   UNL     1      28.501   2.141  54.221  1.00  0.00     0.045 A 
ATOM      7  C   UNL     1      27.704   2.941  53.391  1.00  0.00     0.040 A 
ENDROOT
BRANCH   1   8
ATOM      8  C   UNL     1      26.252   3.385  51.488  1.00  0.00     0.255 C 
ATOM      9  O   UNL     1      26.443   3.223  50.308  1.00  0.00    -0.269 OA
ATOM     10  N   UNL     1      25.312   4.153  52.058  1.00  0.00    -0.322 N 
ATOM     11  H   UNL     1      25.189   4.063  53.077  1.00  0.00     0.170 HD
BRANCH  10  12
ATOM     12  C   UNL     1      24.490   5.059  51.400  1.00  0.00     0.044 A 
ATOM     13  C   UNL     1      23.811   6.077  52.115  1.00  0.00     0.052 A 
ATOM     14  C   UNL     1      24.217   4.912  50.023  1.00  0.00     0.039 A 
ATOM     15  C   UNL     1      22.989   6.999  51.461  1.00  0.00     0.049 A 
ATOM     16  C   UNL     1      23.397   5.866  49.354  1.00  0.00     0.060 A 
ATOM     17  C   UNL     1      22.771   6.872  50.093  1.00  0.00     0.039 A 
BRANCH  15  18
ATOM     18  N   UNL     1      22.346   8.035  52.154  1.00  0.00    -0.306 N 
ATOM     19  C   UNL     1      21.516   7.959  53.271  1.00  0.00     0.116 A 
ATOM     20  C   UNL     1      22.325   9.331  51.818  1.00  0.00     0.204 A 
ATOM     21  C   UNL     1      21.055   9.200  53.540  1.00  0.00     0.056 A 
ATOM     22  N   UNL     1      21.599  10.049  52.639  1.00  0.00    -0.242 NA
ATOM     23  C   UNL     1      20.141   9.629  54.662  1.00  0.00     0.068 C 
ENDBRANCH  15  18
BRANCH  16  24
ATOM     24  C   UNL     1      23.174   5.720  47.884  1.00  0.00     0.416 C 
ATOM     25  F   UNL     1      24.280   5.448  47.164  1.00  0.00    -0.166 F 
ATOM     26  F   UNL     1      22.408   4.669  47.619  1.00  0.00    -0.166 F 
ATOM     27  F   UNL     1      22.706   6.854  47.322  1.00  0.00    -0.166 F 
ENDBRANCH  16  24
ENDBRANCH  10  12
ENDBRANCH   1   8
BRANCH   6  28
ATOM     28  N   UNL     1      29.071   2.670  55.386  1.00  0.00    -0.324 N 
ATOM     29  H   UNL     1      28.488   2.845  56.216  1.00  0.00     0.170 HD
BRANCH  28  30
ATOM     30  C   UNL     1      30.438   2.956  55.413  1.00  0.00     0.227 A 
ATOM     31  N   UNL     1      31.085   3.861  56.136  1.00  0.00    -0.221 NA
ATOM     32  N   UNL     1      31.040   2.179  54.476  1.00  0.00    -0.213 NA
ATOM     33  C   UNL     1      32.412   3.961  55.935  1.00  0.00     0.117 A 
ATOM     34  C   UNL     1      32.355   2.337  54.289  1.00  0.00     0.077 A 
ATOM     35  C   UNL     1      33.061   3.232  55.014  1.00  0.00     0.049 A 
BRANCH  34  36
ATOM     36  C   UNL     1      32.973   1.439  53.279  1.00  0.00     0.019 A 
ATOM     37  C   UNL     1      32.193   0.720  52.359  1.00  0.00     0.013 A 
ATOM     38  C   UNL     1      34.371   1.274  53.228  1.00  0.00     0.121 A 
ATOM     39  C   UNL     1      32.823  -0.124  51.454  1.00  0.00     0.021 A 
ATOM     40  N   UNL     1      34.984   0.455  52.363  1.00  0.00    -0.264 NA
ATOM     41  C   UNL     1      34.215  -0.200  51.478  1.00  0.00     0.111 A 
ENDBRANCH  34  36
ENDBRANCH  28  30
ENDBRANCH   6  28
TORSDOF 7
ENDMDL
MODEL 10
REMARK VINA RESULT:   -11.331      4.799     10.739
REMARK INTER + INTRA:         -14.612
REMARK INTER:                 -13.419
REMARK INTRA:                  -1.193
REMARK CONF_INDEPENDENT:        2.088
REMARK UNBOUND:                -1.193
REMARK SMILES Cc1cn(-c2cc(NC(=O)c3ccc(C)c(Nc4nccc(-c5cccnc5)n4)c3)cc(C(F)(F)F)c2)cn1
REMARK SMILES IDX 11 1 12 2 13 3 14 4 15 5 16 6 30 7 9 8 10 9 8 10 7 12 6 13
REMARK SMILES IDX 31 14 5 15 32 16 37 17 4 18 3 19 38 20 2 21 39 22 1 23 33 24
REMARK SMILES IDX 34 25 35 26 36 27 17 28 18 30 19 31 29 32 20 33 22 34 21 35
REMARK SMILES IDX 23 36 24 37 28 38 25 39 27 40 26 41
REMARK H PARENT 8 11 17 29
ROOT
ATOM      1  C   UNL     1      25.929   3.774  52.955  1.00  0.00     0.042 A 
ATOM      2  C   UNL     1      25.612   4.775  53.886  1.00  0.00     0.014 A 
ATOM      3  C   UNL     1      24.335   5.334  53.945  1.00  0.00     0.006 A 
ATOM      4  C   UNL     1      23.354   4.983  53.032  1.00  0.00    -0.027 A 
ATOM      5  C   UNL     1      21.968   5.608  53.103  1.00  0.00     0.046 C 
ATOM      6  C   UNL     1      23.694   4.066  52.039  1.00  0.00     0.045 A 
ATOM      7  C   UNL     1      24.974   3.497  52.012  1.00  0.00     0.040 A 
ENDROOT
BRANCH   1   8
ATOM      8  C   UNL     1      27.281   3.221  52.739  1.00  0.00     0.255 C 
ATOM      9  O   UNL     1      27.625   3.129  51.586  1.00  0.00    -0.269 OA
ATOM     10  N   UNL     1      28.060   3.120  53.827  1.00  0.00    -0.322 N 
ATOM     11  H   UNL     1      27.635   3.372  54.731  1.00  0.00     0.170 HD
BRANCH  10  12
ATOM     12  C   UNL     1      29.386   2.707  53.846  1.00  0.00     0.044 A 
ATOM     13  C   UNL     1      29.833   1.659  53.004  1.00  0.00     0.052 A 
ATOM     14  C   UNL     1      30.291   3.241  54.789  1.00  0.00     0.039 A 
ATOM     15  C   UNL     1      31.167   1.243  53.009  1.00  0.00     0.049 A 
ATOM     16  C   UNL     1      31.655   2.832  54.777  1.00  0.00     0.060 A 
ATOM     17  C   UNL     1      32.060   1.815  53.909  1.00  0.00     0.039 A 
BRANCH  15  18
ATOM     18  N   UNL     1      31.629   0.234  52.150  1.00  0.00    -0.306 N 
ATOM     19  C   UNL     1      32.842   0.151  51.469  1.00  0.00     0.116 A 
ATOM     20  C   UNL     1      30.943  -0.835  51.729  1.00  0.00     0.204 A 
ATOM     21  C   UNL     1      32.815  -0.953  50.692  1.00  0.00     0.056 A 
ATOM     22  N   UNL     1      31.632  -1.574  50.893  1.00  0.00    -0.242 NA
ATOM     23  C   UNL     1      33.902  -1.478  49.785  1.00  0.00     0.068 C 
ENDBRANCH  15  18
BRANCH  16  24
ATOM     24  C   UNL     1      32.604   3.458  55.746  1.00  0.00     0.416 C 
ATOM     25  F   UNL     1      33.842   2.925  55.756  1.00  0.00    -0.166 F 
ATOM     26  F   UNL     1      32.851   4.722  55.424  1.00  0.00    -0.166 F 
ATOM     27  F   UNL     1      32.195   3.322  57.025  1.00  0.00    -0.166 F 
ENDBRANCH  16  24
ENDBRANCH  10  12
ENDBRANCH   1   8
BRANCH   6  28
ATOM     28  N   UNL     1      22.679   3.575  51.208  1.00  0.00    -0.324 N 
ATOM     29  H   UNL     1      21.710   3.517  51.552  1.00  0.00     0.170 HD
BRANCH  28  30
ATOM     30  C   UNL     1      22.991   3.165  49.910  1.00  0.00     0.227 A 
ATOM     31  N   UNL     1      23.663   3.818  48.970  1.00  0.00    -0.221 NA
ATOM     32  N   UNL     1      22.406   1.956  49.709  1.00  0.00    -0.213 NA
ATOM     33  C   UNL     1      23.785   3.204  47.778  1.00  0.00     0.117 A 
ATOM     34  C   UNL     1      22.528   1.401  48.497  1.00  0.00     0.077 A 
ATOM     35  C   UNL     1      23.217   2.017  47.513  1.00  0.00     0.049 A 
BRANCH  34  36
ATOM     36  C   UNL     1      21.900   0.063  48.338  1.00  0.00     0.019 A 
ATOM     37  C   UNL     1      21.525  -0.428  47.077  1.00  0.00     0.013 A 
ATOM     38  C   UNL     1      21.649  -0.748  49.462  1.00  0.00     0.121 A 
ATOM     39  C   UNL     1      20.919  -1.675  46.991  1.00  0.00     0.021 A 
ATOM     40  N   UNL     1      21.058  -1.947  49.386  1.00  0.00    -0.264 NA
ATOM     41  C   UNL     1      20.733  -2.403  48.165  1.00  0.00     0.111 A 
ENDBRANCH  34  36
ENDBRANCH  28  30
ENDBRANCH   6  28
TORSDOF 7
ENDMDL
MODEL 11
REMARK VINA RESULT:   -10.956      3.756     11.778
REMARK INTER + INTRA:         -14.366
REMARK INTER:                 -13.044
REMARK INTRA:                  -1.322
REMARK CONF_INDEPENDENT:        2.088
REMARK UNBOUND:                -1.322
REMARK SMILES Cc1cn(-c2cc(NC(=O)c3ccc(C)c(Nc4nccc(-c5cccnc5)n4)c3)cc(C(F)(F)F)c2)cn1
REMARK SMILES IDX 11 1 12 2 13 3 14 4 15 5 16 6 30 7 9 8 10 9 8 10 7 12 6 13
REMARK SMILES IDX 31 14 5 15 32 16 37 17 4 18 3 19 38 20 2 21 39 22 1 23 33 24
REMARK SMILES IDX 34 25 35 26 36 27 17 28 18 30 19 31 29 32 20 33 22 34 21 35
REMARK SMILES IDX 23 36 24 37 28 38 25 39 27 40 26 41
REMARK H PARENT 8 11 17 29
ROOT
ATOM      1  C   UNL     1      26.250   3.346  51.601  1.00  0.00     0.042 A 
ATOM      2  C   UNL     1      25.569   3.610  50.403  1.00  0.00     0.014 A 
ATOM      3  C   UNL     1      24.311   4.214  50.400  1.00  0.00     0.006 A 
ATOM      4  C   UNL     1      23.649   4.500  51.583  1.00  0.00    -0.027 A 
ATOM      5  C   UNL     1      22.273   5.152  51.565  1.00  0.00     0.046 C 
ATOM      6  C   UNL     1      24.276   4.145  52.777  1.00  0.00     0.045 A 
ATOM      7  C   UNL     1      25.549   3.563  52.759  1.00  0.00     0.040 A 
ENDROOT
BRANCH   1   8
ATOM      8  C   UNL     1      27.520   2.600  51.702  1.00  0.00     0.255 C 
ATOM      9  O   UNL     1      28.434   3.041  51.050  1.00  0.00    -0.269 OA
ATOM     10  N   UNL     1      27.592   1.685  52.681  1.00  0.00    -0.322 N 
ATOM     11  H   UNL     1      26.741   1.529  53.239  1.00  0.00     0.170 HD
BRANCH  10  12
ATOM     12  C   UNL     1      28.711   0.930  53.011  1.00  0.00     0.044 A 
ATOM     13  C   UNL     1      29.986   1.249  52.482  1.00  0.00     0.052 A 
ATOM     14  C   UNL     1      28.581  -0.244  53.785  1.00  0.00     0.039 A 
ATOM     15  C   UNL     1      31.118   0.502  52.816  1.00  0.00     0.049 A 
ATOM     16  C   UNL     1      29.740  -0.991  54.143  1.00  0.00     0.060 A 
ATOM     17  C   UNL     1      30.983  -0.624  53.623  1.00  0.00     0.039 A 
BRANCH  15  18
ATOM     18  N   UNL     1      32.392   0.835  52.331  1.00  0.00    -0.306 N 
ATOM     19  C   UNL     1      33.050   0.358  51.199  1.00  0.00     0.116 A 
ATOM     20  C   UNL     1      33.292   1.629  52.923  1.00  0.00     0.204 A 
ATOM     21  C   UNL     1      34.290   0.893  51.175  1.00  0.00     0.056 A 
ATOM     22  N   UNL     1      34.411   1.711  52.245  1.00  0.00    -0.242 NA
ATOM     23  C   UNL     1      35.368   0.693  50.138  1.00  0.00     0.068 C 
ENDBRANCH  15  18
BRANCH  16  24
ATOM     24  C   UNL     1      29.581  -2.196  55.013  1.00  0.00     0.416 C 
ATOM     25  F   UNL     1      29.025  -3.265  54.409  1.00  0.00    -0.166 F 
ATOM     26  F   UNL     1      30.762  -2.674  55.386  1.00  0.00    -0.166 F 
ATOM     27  F   UNL     1      28.762  -1.967  56.061  1.00  0.00    -0.166 F 
ENDBRANCH  16  24
ENDBRANCH  10  12
ENDBRANCH   1   8
BRANCH   6  28
ATOM     28  N   UNL     1      23.703   4.570  53.983  1.00  0.00    -0.324 N 
ATOM     29  H   UNL     1      22.969   4.007  54.436  1.00  0.00     0.170 HD
BRANCH  28  30
ATOM     30  C   UNL     1      24.135   5.762  54.566  1.00  0.00     0.227 A 
ATOM     31  N   UNL     1      25.035   5.942  55.525  1.00  0.00    -0.221 NA
ATOM     32  N   UNL     1      23.402   6.772  54.031  1.00  0.00    -0.213 NA
ATOM     33  C   UNL     1      25.234   7.208  55.939  1.00  0.00     0.117 A 
ATOM     34  C   UNL     1      23.612   8.009  54.497  1.00  0.00     0.077 A 
ATOM     35  C   UNL     1      24.530   8.245  55.459  1.00  0.00     0.049 A 
BRANCH  34  36
ATOM     36  C   UNL     1      22.810   9.082  53.854  1.00  0.00     0.019 A 
ATOM     37  C   UNL     1      22.255   8.921  52.575  1.00  0.00     0.013 A 
ATOM     38  C   UNL     1      22.597  10.308  54.515  1.00  0.00     0.121 A 
ATOM     39  C   UNL     1      21.536   9.968  52.014  1.00  0.00     0.021 A 
ATOM     40  N   UNL     1      21.912  11.325  53.976  1.00  0.00    -0.264 NA
ATOM     41  C   UNL     1      21.370  11.133  52.761  1.00  0.00     0.111 A 
ENDBRANCH  34  36
ENDBRANCH  28  30
ENDBRANCH   6  28
TORSDOF 7
ENDMDL
MODEL 12
REMARK VINA RESULT:   -10.891      8.360     15.196
REMARK INTER + INTRA:         -14.290
REMARK INTER:                 -12.980
REMARK INTRA:                  -1.310
REMARK CONF_INDEPENDENT:        2.088
REMARK UNBOUND:                -1.310
REMARK SMILES Cc1cn(-c2cc(NC(=O)c3ccc(C)c(Nc4nccc(-c5cccnc5)n4)c3)cc(C(F)(F)F)c2)cn1
REMARK SMILES IDX 11 1 12 2 13 3 14 4 15 5 16 6 30 7 9 8 10 9 8 10 7 12 6 13
REMARK SMILES IDX 31 14 5 15 32 16 37 17 4 18 3 19 38 20 2 21 39 22 1 23 33 24
REMARK SMILES IDX 34 25 35 26 36 27 17 28 18 30 19 31 29 32 20 33 22 34 21 35
REMARK SMILES IDX 23 36 24 37 28 38 25 39 27 40 26 41
REMARK H PARENT 8 11 17 29
ROOT
ATOM      1  C   UNL     1      35.984  -1.710  49.309  1.00  0.00     0.042 A 
ATOM      2  C   UNL     1      35.190  -2.861  49.193  1.00  0.00     0.014 A 
ATOM      3  C   UNL     1      33.814  -2.822  49.425  1.00  0.00     0.006 A 
ATOM      4  C   UNL     1      33.192  -1.664  49.861  1.00  0.00    -0.027 A 
ATOM      5  C   UNL     1      31.692  -1.638  50.118  1.00  0.00     0.046 C 
ATOM      6  C   UNL     1      33.992  -0.543  50.079  1.00  0.00     0.045 A 
ATOM      7  C   UNL     1      35.367  -0.596  49.816  1.00  0.00     0.040 A 
ENDROOT
BRANCH   1   8
ATOM      8  C   UNL     1      37.456  -1.687  49.207  1.00  0.00     0.255 C 
ATOM      9  O   UNL     1      38.039  -1.334  50.203  1.00  0.00    -0.269 OA
ATOM     10  N   UNL     1      37.984  -2.290  48.131  1.00  0.00    -0.322 N 
ATOM     11  H   UNL     1      37.324  -2.660  47.432  1.00  0.00     0.170 HD
BRANCH  10  12
ATOM     12  C   UNL     1      39.338  -2.460  47.873  1.00  0.00     0.044 A 
ATOM     13  C   UNL     1      39.905  -2.028  46.648  1.00  0.00     0.052 A 
ATOM     14  C   UNL     1      40.156  -3.175  48.774  1.00  0.00     0.039 A 
ATOM     15  C   UNL     1      41.268  -2.186  46.384  1.00  0.00     0.049 A 
ATOM     16  C   UNL     1      41.549  -3.315  48.513  1.00  0.00     0.060 A 
ATOM     17  C   UNL     1      42.073  -2.847  47.306  1.00  0.00     0.039 A 
BRANCH  15  18
ATOM     18  N   UNL     1      41.847  -1.724  45.192  1.00  0.00    -0.306 N 
ATOM     19  C   UNL     1      42.150  -0.417  44.815  1.00  0.00     0.116 A 
ATOM     20  C   UNL     1      42.150  -2.454  44.113  1.00  0.00     0.204 A 
ATOM     21  C   UNL     1      42.616  -0.441  43.547  1.00  0.00     0.056 A 
ATOM     22  N   UNL     1      42.639  -1.728  43.137  1.00  0.00    -0.242 NA
ATOM     23  C   UNL     1      43.091   0.722  42.710  1.00  0.00     0.068 C 
ENDBRANCH  15  18
BRANCH  16  24
ATOM     24  C   UNL     1      42.403  -4.025  49.514  1.00  0.00     0.416 C 
ATOM     25  F   UNL     1      43.723  -4.017  49.243  1.00  0.00    -0.166 F 
ATOM     26  F   UNL     1      42.361  -3.417  50.693  1.00  0.00    -0.166 F 
ATOM     27  F   UNL     1      42.108  -5.338  49.600  1.00  0.00    -0.166 F 
ENDBRANCH  16  24
ENDBRANCH  10  12
ENDBRANCH   1   8
BRANCH   6  28
ATOM     28  N   UNL     1      33.367   0.678  50.361  1.00  0.00    -0.324 N 
ATOM     29  H   UNL     1      33.042   1.284  49.595  1.00  0.00     0.170 HD
BRANCH  28  30
ATOM     30  C   UNL     1      33.187   1.066  51.690  1.00  0.00     0.227 A 
ATOM     31  N   UNL     1      33.887   1.940  52.404  1.00  0.00    -0.221 NA
ATOM     32  N   UNL     1      32.177   0.319  52.205  1.00  0.00    -0.213 NA
ATOM     33  C   UNL     1      33.525   2.097  53.692  1.00  0.00     0.117 A 
ATOM     34  C   UNL     1      31.875   0.488  53.498  1.00  0.00     0.077 A 
ATOM     35  C   UNL     1      32.546   1.377  54.261  1.00  0.00     0.049 A 
BRANCH  34  36
ATOM     36  C   UNL     1      30.739  -0.327  54.003  1.00  0.00     0.019 A 
ATOM     37  C   UNL     1      29.671   0.255  54.705  1.00  0.00     0.013 A 
ATOM     38  C   UNL     1      30.714  -1.721  53.803  1.00  0.00     0.121 A 
ATOM     39  C   UNL     1      28.650  -0.559  55.176  1.00  0.00     0.021 A 
ATOM     40  N   UNL     1      29.736  -2.512  54.261  1.00  0.00    -0.264 NA
ATOM     41  C   UNL     1      28.714  -1.926  54.907  1.00  0.00     0.111 A 
ENDBRANCH  34  36
ENDBRANCH  28  30
ENDBRANCH   6  28
TORSDOF 7
ENDMDL
MODEL 13
REMARK VINA RESULT:   -10.855      4.621      7.548
REMARK INTER + INTRA:         -13.801
REMARK INTER:                 -12.943
REMARK INTRA:                  -0.858
REMARK CONF_INDEPENDENT:        2.088
REMARK UNBOUND:                -0.858
REMARK SMILES Cc1cn(-c2cc(NC(=O)c3ccc(C)c(Nc4nccc(-c5cccnc5)n4)c3)cc(C(F)(F)F)c2)cn1
REMARK SMILES IDX 11 1 12 2 13 3 14 4 15 5 16 6 30 7 9 8 10 9 8 10 7 12 6 13
REMARK SMILES IDX 31 14 5 15 32 16 37 17 4 18 3 19 38 20 2 21 39 22 1 23 33 24
REMARK SMILES IDX 34 25 35 26 36 27 17 28 18 30 19 31 29 32 20 33 22 34 21 35
REMARK SMILES IDX 23 36 24 37 28 38 25 39 27 40 26 41
REMARK H PARENT 8 11 17 29
ROOT
ATOM      1  C   UNL     1      23.062   5.956  52.601  1.00  0.00     0.042 A 
ATOM      2  C   UNL     1      22.750   5.622  51.275  1.00  0.00     0.014 A 
ATOM      3  C   UNL     1      23.323   4.513  50.650  1.00  0.00     0.006 A 
ATOM      4  C   UNL     1      24.286   3.747  51.288  1.00  0.00    -0.027 A 
ATOM      5  C   UNL     1      24.908   2.545  50.592  1.00  0.00     0.046 C 
ATOM      6  C   UNL     1      24.676   4.136  52.569  1.00  0.00     0.045 A 
ATOM      7  C   UNL     1      24.071   5.237  53.187  1.00  0.00     0.040 A 
ENDROOT
BRANCH   1   8
ATOM      8  C   UNL     1      22.603   7.176  53.293  1.00  0.00     0.255 C 
ATOM      9  O   UNL     1      23.380   8.100  53.286  1.00  0.00    -0.269 OA
ATOM     10  N   UNL     1      21.304   7.215  53.627  1.00  0.00    -0.322 N 
ATOM     11  H   UNL     1      20.748   6.370  53.435  1.00  0.00     0.170 HD
BRANCH  10  12
ATOM     12  C   UNL     1      20.642   8.290  54.206  1.00  0.00     0.044 A 
ATOM     13  C   UNL     1      19.604   8.962  53.515  1.00  0.00     0.052 A 
ATOM     14  C   UNL     1      21.069   8.812  55.447  1.00  0.00     0.039 A 
ATOM     15  C   UNL     1      18.925  10.038  54.094  1.00  0.00     0.049 A 
ATOM     16  C   UNL     1      20.362   9.894  56.044  1.00  0.00     0.060 A 
ATOM     17  C   UNL     1      19.324  10.509  55.341  1.00  0.00     0.039 A 
BRANCH  15  18
ATOM     18  N   UNL     1      17.868  10.684  53.435  1.00  0.00    -0.306 N 
ATOM     19  C   UNL     1      16.715  11.250  53.976  1.00  0.00     0.116 A 
ATOM     20  C   UNL     1      17.706  10.810  52.113  1.00  0.00     0.204 A 
ATOM     21  C   UNL     1      15.939  11.682  52.957  1.00  0.00     0.056 A 
ATOM     22  N   UNL     1      16.592  11.427  51.801  1.00  0.00    -0.242 NA
ATOM     23  C   UNL     1      14.603  12.380  53.039  1.00  0.00     0.068 C 
ENDBRANCH  15  18
BRANCH  16  24
ATOM     24  C   UNL     1      20.798  10.387  57.386  1.00  0.00     0.416 C 
ATOM     25  F   UNL     1      21.582   9.537  58.078  1.00  0.00    -0.166 F 
ATOM     26  F   UNL     1      21.582  11.453  57.270  1.00  0.00    -0.166 F 
ATOM     27  F   UNL     1      19.757  10.601  58.217  1.00  0.00    -0.166 F 
ENDBRANCH  16  24
ENDBRANCH  10  12
ENDBRANCH   1   8
BRANCH   6  28
ATOM     28  N   UNL     1      25.524   3.288  53.293  1.00  0.00    -0.324 N 
ATOM     29  H   UNL     1      25.249   2.954  54.227  1.00  0.00     0.170 HD
BRANCH  28  30
ATOM     30  C   UNL     1      26.745   2.900  52.738  1.00  0.00     0.227 A 
ATOM     31  N   UNL     1      27.419   3.454  51.739  1.00  0.00    -0.221 NA
ATOM     32  N   UNL     1      27.132   1.754  53.356  1.00  0.00    -0.213 NA
ATOM     33  C   UNL     1      28.562   2.846  51.369  1.00  0.00     0.117 A 
ATOM     34  C   UNL     1      28.258   1.169  52.932  1.00  0.00     0.077 A 
ATOM     35  C   UNL     1      28.989   1.705  51.931  1.00  0.00     0.049 A 
BRANCH  34  36
ATOM     36  C   UNL     1      28.657  -0.062  53.664  1.00  0.00     0.019 A 
ATOM     37  C   UNL     1      27.941  -0.518  54.781  1.00  0.00     0.013 A 
ATOM     38  C   UNL     1      29.786  -0.801  53.258  1.00  0.00     0.121 A 
ATOM     39  C   UNL     1      28.375  -1.661  55.441  1.00  0.00     0.021 A 
ATOM     40  N   UNL     1      30.214  -1.898  53.895  1.00  0.00    -0.264 NA
ATOM     41  C   UNL     1      29.495  -2.327  54.945  1.00  0.00     0.111 A 
ENDBRANCH  34  36
ENDBRANCH  28  30
ENDBRANCH   6  28
TORSDOF 7
ENDMDL
MODEL 14
REMARK VINA RESULT:   -10.855      1.756      2.680
REMARK INTER + INTRA:         -14.142
REMARK INTER:                 -12.943
REMARK INTRA:                  -1.199
REMARK CONF_INDEPENDENT:        2.088
REMARK UNBOUND:                -1.199
REMARK SMILES Cc1cn(-c2cc(NC(=O)c3ccc(C)c(Nc4nccc(-c5cccnc5)n4)c3)cc(C(F)(F)F)c2)cn1
REMARK SMILES IDX 11 1 12 2 13 3 14 4 15 5 16 6 30 7 9 8 10 9 8 10 7 12 6 13
REMARK SMILES IDX 31 14 5 15 32 16 37 17 4 18 3 19 38 20 2 21 39 22 1 23 33 24
REMARK SMILES IDX 34 25 35 26 36 27 17 28 18 30 19 31 29 32 20 33 22 34 21 35
REMARK SMILES IDX 23 36 24 37 28 38 25 39 27 40 26 41
REMARK H PARENT 8 11 17 29
ROOT
ATOM      1  C   UNL     1      27.050   2.360  52.504  1.00  0.00     0.042 A 
ATOM      2  C   UNL     1      27.162   1.263  51.637  1.00  0.00     0.014 A 
ATOM      3  C   UNL     1      28.090   0.246  51.868  1.00  0.00     0.006 A 
ATOM      4  C   UNL     1      28.994   0.323  52.916  1.00  0.00    -0.027 A 
ATOM      5  C   UNL     1      30.005  -0.790  53.151  1.00  0.00     0.046 C 
ATOM      6  C   UNL     1      28.956   1.461  53.719  1.00  0.00     0.045 A 
ATOM      7  C   UNL     1      28.000   2.458  53.486  1.00  0.00     0.040 A 
ENDROOT
BRANCH   1   8
ATOM      8  C   UNL     1      26.189   3.537  52.268  1.00  0.00     0.255 C 
ATOM      9  O   UNL     1      26.045   3.850  51.111  1.00  0.00    -0.269 OA
ATOM     10  N   UNL     1      25.473   3.965  53.318  1.00  0.00    -0.322 N 
ATOM     11  H   UNL     1      25.628   3.487  54.216  1.00  0.00     0.170 HD
BRANCH  10  12
ATOM     12  C   UNL     1      24.542   4.996  53.304  1.00  0.00     0.044 A 
ATOM     13  C   UNL     1      23.801   5.323  54.467  1.00  0.00     0.052 A 
ATOM     14  C   UNL     1      24.225   5.661  52.099  1.00  0.00     0.039 A 
ATOM     15  C   UNL     1      22.869   6.365  54.465  1.00  0.00     0.049 A 
ATOM     16  C   UNL     1      23.292   6.737  52.105  1.00  0.00     0.060 A 
ATOM     17  C   UNL     1      22.606   7.046  53.282  1.00  0.00     0.039 A 
BRANCH  15  18
ATOM     18  N   UNL     1      22.162   6.723  55.622  1.00  0.00    -0.306 N 
ATOM     19  C   UNL     1      22.539   7.590  56.646  1.00  0.00     0.116 A 
ATOM     20  C   UNL     1      20.990   6.223  56.033  1.00  0.00     0.204 A 
ATOM     21  C   UNL     1      21.580   7.563  57.598  1.00  0.00     0.056 A 
ATOM     22  N   UNL     1      20.604   6.727  57.180  1.00  0.00    -0.242 NA
ATOM     23  C   UNL     1      21.529   8.346  58.887  1.00  0.00     0.068 C 
ENDBRANCH  15  18
BRANCH  16  24
ATOM     24  C   UNL     1      23.020   7.463  50.827  1.00  0.00     0.416 C 
ATOM     25  F   UNL     1      22.276   6.783  49.932  1.00  0.00    -0.166 F 
ATOM     26  F   UNL     1      22.275   8.542  51.041  1.00  0.00    -0.166 F 
ATOM     27  F   UNL     1      24.151   7.744  50.147  1.00  0.00    -0.166 F 
ENDBRANCH  16  24
ENDBRANCH  10  12
ENDBRANCH   1   8
BRANCH   6  28
ATOM     28  N   UNL     1      29.745   1.486  54.877  1.00  0.00    -0.324 N 
ATOM     29  H   UNL     1      29.381   1.105  55.761  1.00  0.00     0.170 HD
BRANCH  28  30
ATOM     30  C   UNL     1      31.028   2.033  54.821  1.00  0.00     0.227 A 
ATOM     31  N   UNL     1      31.536   3.038  55.522  1.00  0.00    -0.221 NA
ATOM     32  N   UNL     1      31.704   1.398  53.828  1.00  0.00    -0.213 NA
ATOM     33  C   UNL     1      32.802   3.397  55.237  1.00  0.00     0.117 A 
ATOM     34  C   UNL     1      32.948   1.811  53.560  1.00  0.00     0.077 A 
ATOM     35  C   UNL     1      33.515   2.818  54.258  1.00  0.00     0.049 A 
BRANCH  34  36
ATOM     36  C   UNL     1      33.656   1.061  52.490  1.00  0.00     0.019 A 
ATOM     37  C   UNL     1      34.396   1.722  51.495  1.00  0.00     0.013 A 
ATOM     38  C   UNL     1      33.590  -0.345  52.438  1.00  0.00     0.121 A 
ATOM     39  C   UNL     1      35.016   0.970  50.505  1.00  0.00     0.021 A 
ATOM     40  N   UNL     1      34.180  -1.074  51.481  1.00  0.00    -0.264 NA
ATOM     41  C   UNL     1      34.902  -0.418  50.558  1.00  0.00     0.111 A 
ENDBRANCH  34  36
ENDBRANCH  28  30
ENDBRANCH   6  28
TORSDOF 7
ENDMDL
MODEL 15
REMARK VINA RESULT:   -10.831      4.642     13.499
REMARK INTER + INTRA:         -14.223
REMARK INTER:                 -12.919
REMARK INTRA:                  -1.304
REMARK CONF_INDEPENDENT:        2.088
REMARK UNBOUND:                -1.304
REMARK SMILES Cc1cn(-c2cc(NC(=O)c3ccc(C)c(Nc4nccc(-c5cccnc5)n4)c3)cc(C(F)(F)F)c2)cn1
REMARK SMILES IDX 11 1 12 2 13 3 14 4 15 5 16 6 30 7 9 8 10 9 8 10 7 12 6 13
REMARK SMILES IDX 31 14 5 15 32 16 37 17 4 18 3 19 38 20 2 21 39 22 1 23 33 24
REMARK SMILES IDX 34 25 35 26 36 27 17 28 18 30 19 31 29 32 20 33 22 34 21 35
REMARK SMILES IDX 23 36 24 37 28 38 25 39 27 40 26 41
REMARK H PARENT 8 11 17 29
ROOT
ATOM      1  C   UNL     1      21.150   7.145  54.258  1.00  0.00     0.042 A 
ATOM      2  C   UNL     1      20.956   7.291  55.640  1.00  0.00     0.014 A 
ATOM      3  C   UNL     1      20.230   8.362  56.163  1.00  0.00     0.006 A 
ATOM      4  C   UNL     1      19.744   9.368  55.344  1.00  0.00    -0.027 A 
ATOM      5  C   UNL     1      18.961  10.535  55.930  1.00  0.00     0.046 C 
ATOM      6  C   UNL     1      20.023   9.283  53.981  1.00  0.00     0.045 A 
ATOM      7  C   UNL     1      20.731   8.187  53.473  1.00  0.00     0.040 A 
ENDROOT
BRANCH   1   8
ATOM      8  C   UNL     1      22.006   6.119  53.630  1.00  0.00     0.255 C 
ATOM      9  O   UNL     1      21.903   5.007  54.088  1.00  0.00    -0.269 OA
ATOM     10  N   UNL     1      22.602   6.469  52.480  1.00  0.00    -0.322 N 
ATOM     11  H   UNL     1      22.470   7.439  52.162  1.00  0.00     0.170 HD
BRANCH  10  12
ATOM     12  C   UNL     1      23.379   5.642  51.680  1.00  0.00     0.044 A 
ATOM     13  C   UNL     1      24.497   4.954  52.214  1.00  0.00     0.052 A 
ATOM     14  C   UNL     1      23.145   5.562  50.290  1.00  0.00     0.039 A 
ATOM     15  C   UNL     1      25.280   4.112  51.419  1.00  0.00     0.049 A 
ATOM     16  C   UNL     1      23.930   4.686  49.486  1.00  0.00     0.060 A 
ATOM     17  C   UNL     1      25.005   4.003  50.060  1.00  0.00     0.039 A 
BRANCH  15  18
ATOM     18  N   UNL     1      26.363   3.395  51.948  1.00  0.00    -0.306 N 
ATOM     19  C   UNL     1      26.708   3.187  53.282  1.00  0.00     0.116 A 
ATOM     20  C   UNL     1      27.361   2.827  51.259  1.00  0.00     0.204 A 
ATOM     21  C   UNL     1      27.877   2.510  53.315  1.00  0.00     0.056 A 
ATOM     22  N   UNL     1      28.252   2.266  52.040  1.00  0.00    -0.242 NA
ATOM     23  C   UNL     1      28.642   2.037  54.527  1.00  0.00     0.068 C 
ENDBRANCH  15  18
BRANCH  16  24
ATOM     24  C   UNL     1      23.622   4.575  48.028  1.00  0.00     0.416 C 
ATOM     25  F   UNL     1      24.509   5.177  47.211  1.00  0.00    -0.166 F 
ATOM     26  F   UNL     1      23.685   3.313  47.621  1.00  0.00    -0.166 F 
ATOM     27  F   UNL     1      22.451   5.162  47.705  1.00  0.00    -0.166 F 
ENDBRANCH  16  24
ENDBRANCH  10  12
ENDBRANCH   1   8
BRANCH   6  28
ATOM     28  N   UNL     1      19.407  10.197  53.117  1.00  0.00    -0.324 N 
ATOM     29  H   UNL     1      19.973  10.754  52.460  1.00  0.00     0.170 HD
BRANCH  28  30
ATOM     30  C   UNL     1      18.019  10.347  53.151  1.00  0.00     0.227 A 
ATOM     31  N   UNL     1      17.300  11.460  53.079  1.00  0.00    -0.221 NA
ATOM     32  N   UNL     1      17.477   9.120  53.360  1.00  0.00    -0.213 NA
ATOM     33  C   UNL     1      15.964  11.326  53.183  1.00  0.00     0.117 A 
ATOM     34  C   UNL     1      16.148   9.040  53.489  1.00  0.00     0.077 A 
ATOM     35  C   UNL     1      15.371  10.142  53.404  1.00  0.00     0.049 A 
BRANCH  34  36
ATOM     36  C   UNL     1      15.601   7.672  53.681  1.00  0.00     0.019 A 
ATOM     37  C   UNL     1      14.790   7.351  54.781  1.00  0.00     0.013 A 
ATOM     38  C   UNL     1      15.900   6.647  52.761  1.00  0.00     0.121 A 
ATOM     39  C   UNL     1      14.328   6.048  54.922  1.00  0.00     0.021 A 
ATOM     40  N   UNL     1      15.465   5.388  52.897  1.00  0.00    -0.264 NA
ATOM     41  C   UNL     1      14.669   5.115  53.944  1.00  0.00     0.111 A 
ENDBRANCH  34  36
ENDBRANCH  28  30
ENDBRANCH   6  28
TORSDOF 7
ENDMDL
MODEL 16
REMARK VINA RESULT:   -10.753      1.749      2.636
REMARK INTER + INTRA:         -14.050
REMARK INTER:                 -12.841
REMARK INTRA:                  -1.209
REMARK CONF_INDEPENDENT:        2.088
REMARK UNBOUND:                -1.209
REMARK SMILES Cc1cn(-c2cc(NC(=O)c3ccc(C)c(Nc4nccc(-c5cccnc5)n4)c3)cc(C(F)(F)F)c2)cn1
REMARK SMILES IDX 11 1 12 2 13 3 14 4 15 5 16 6 30 7 9 8 10 9 8 10 7 12 6 13
REMARK SMILES IDX 31 14 5 15 32 16 37 17 4 18 3 19 38 20 2 21 39 22 1 23 33 24
REMARK SMILES IDX 34 25 35 26 36 27 17 28 18 30 19 31 29 32 20 33 22 34 21 35
REMARK SMILES IDX 23 36 24 37 28 38 25 39 27 40 26 41
REMARK H PARENT 8 11 17 29
ROOT
ATOM      1  C   UNL     1      29.299   1.326  52.420  1.00  0.00     0.042 A 
ATOM      2  C   UNL     1      29.801   1.129  53.715  1.00  0.00     0.014 A 
ATOM      3  C   UNL     1      31.131   0.766  53.932  1.00  0.00     0.006 A 
ATOM      4  C   UNL     1      31.986   0.504  52.874  1.00  0.00    -0.027 A 
ATOM      5  C   UNL     1      33.432   0.101  53.125  1.00  0.00     0.046 C 
ATOM      6  C   UNL     1      31.465   0.597  51.584  1.00  0.00     0.045 A 
ATOM      7  C   UNL     1      30.134   0.988  51.387  1.00  0.00     0.040 A 
ENDROOT
BRANCH   1   8
ATOM      8  C   UNL     1      27.883   1.586  52.094  1.00  0.00     0.255 C 
ATOM      9  O   UNL     1      27.149   0.631  52.176  1.00  0.00    -0.269 OA
ATOM     10  N   UNL     1      27.526   2.875  51.994  1.00  0.00    -0.322 N 
ATOM     11  H   UNL     1      28.274   3.576  52.084  1.00  0.00     0.170 HD
BRANCH  10  12
ATOM     12  C   UNL     1      26.238   3.350  51.778  1.00  0.00     0.044 A 
ATOM     13  C   UNL     1      25.463   3.862  52.848  1.00  0.00     0.052 A 
ATOM     14  C   UNL     1      25.628   3.222  50.511  1.00  0.00     0.039 A 
ATOM     15  C   UNL     1      24.171   4.351  52.640  1.00  0.00     0.049 A 
ATOM     16  C   UNL     1      24.320   3.742  50.296  1.00  0.00     0.060 A 
ATOM     17  C   UNL     1      23.602   4.266  51.373  1.00  0.00     0.039 A 
BRANCH  15  18
ATOM     18  N   UNL     1      23.412   4.899  53.685  1.00  0.00    -0.306 N 
ATOM     19  C   UNL     1      23.661   6.041  54.444  1.00  0.00     0.116 A 
ATOM     20  C   UNL     1      22.313   4.372  54.239  1.00  0.00     0.204 A 
ATOM     21  C   UNL     1      22.706   6.133  55.395  1.00  0.00     0.056 A 
ATOM     22  N   UNL     1      21.854   5.097  55.229  1.00  0.00    -0.242 NA
ATOM     23  C   UNL     1      22.540   7.206  56.443  1.00  0.00     0.068 C 
ENDBRANCH  15  18
BRANCH  16  24
ATOM     24  C   UNL     1      23.722   3.648  48.929  1.00  0.00     0.416 C 
ATOM     25  F   UNL     1      24.613   3.637  47.918  1.00  0.00    -0.166 F 
ATOM     26  F   UNL     1      23.100   2.487  48.760  1.00  0.00    -0.166 F 
ATOM     27  F   UNL     1      22.932   4.703  48.641  1.00  0.00    -0.166 F 
ENDBRANCH  16  24
ENDBRANCH  10  12
ENDBRANCH   1   8
BRANCH   6  28
ATOM     28  N   UNL     1      32.347   0.498  50.500  1.00  0.00    -0.324 N 
ATOM     29  H   UNL     1      32.599   1.335  49.957  1.00  0.00     0.170 HD
BRANCH  28  30
ATOM     30  C   UNL     1      32.881  -0.747  50.162  1.00  0.00     0.227 A 
ATOM     31  N   UNL     1      32.266  -1.918  50.063  1.00  0.00    -0.221 NA
ATOM     32  N   UNL     1      34.222  -0.593  50.013  1.00  0.00    -0.213 NA
ATOM     33  C   UNL     1      33.034  -2.982  49.760  1.00  0.00     0.117 A 
ATOM     34  C   UNL     1      34.948  -1.684  49.744  1.00  0.00     0.077 A 
ATOM     35  C   UNL     1      34.365  -2.896  49.616  1.00  0.00     0.049 A 
BRANCH  34  36
ATOM     36  C   UNL     1      36.404  -1.457  49.555  1.00  0.00     0.019 A 
ATOM     37  C   UNL     1      37.136  -2.147  48.575  1.00  0.00     0.013 A 
ATOM     38  C   UNL     1      37.098  -0.545  50.375  1.00  0.00     0.121 A 
ATOM     39  C   UNL     1      38.500  -1.912  48.461  1.00  0.00     0.021 A 
ATOM     40  N   UNL     1      38.414  -0.320  50.275  1.00  0.00    -0.264 NA
ATOM     41  C   UNL     1      39.084  -0.975  49.312  1.00  0.00     0.111 A 
ENDBRANCH  34  36
ENDBRANCH  28  30
ENDBRANCH   6  28
TORSDOF 7
ENDMDL
MODEL 17
REMARK VINA RESULT:   -10.720      3.544     12.158
REMARK INTER + INTRA:         -14.116
REMARK INTER:                 -12.808
REMARK INTRA:                  -1.308
REMARK CONF_INDEPENDENT:        2.088
REMARK UNBOUND:                -1.308
REMARK SMILES Cc1cn(-c2cc(NC(=O)c3ccc(C)c(Nc4nccc(-c5cccnc5)n4)c3)cc(C(F)(F)F)c2)cn1
REMARK SMILES IDX 11 1 12 2 13 3 14 4 15 5 16 6 30 7 9 8 10 9 8 10 7 12 6 13
REMARK SMILES IDX 31 14 5 15 32 16 37 17 4 18 3 19 38 20 2 21 39 22 1 23 33 24
REMARK SMILES IDX 34 25 35 26 36 27 17 28 18 30 19 31 29 32 20 33 22 34 21 35
REMARK SMILES IDX 23 36 24 37 28 38 25 39 27 40 26 41
REMARK H PARENT 8 11 17 29
ROOT
ATOM      1  C   UNL     1      25.607   3.756  51.892  1.00  0.00     0.042 A 
ATOM      2  C   UNL     1      24.864   3.961  50.720  1.00  0.00     0.014 A 
ATOM      3  C   UNL     1      23.531   4.372  50.768  1.00  0.00     0.006 A 
ATOM      4  C   UNL     1      22.865   4.512  51.975  1.00  0.00    -0.027 A 
ATOM      5  C   UNL     1      21.408   4.953  52.011  1.00  0.00     0.046 C 
ATOM      6  C   UNL     1      23.568   4.209  53.139  1.00  0.00     0.045 A 
ATOM      7  C   UNL     1      24.912   3.823  53.072  1.00  0.00     0.040 A 
ENDROOT
BRANCH   1   8
ATOM      8  C   UNL     1      26.975   3.202  51.937  1.00  0.00     0.255 C 
ATOM      9  O   UNL     1      27.539   3.127  50.873  1.00  0.00    -0.269 OA
ATOM     10  N   UNL     1      27.526   3.084  53.154  1.00  0.00    -0.322 N 
ATOM     11  H   UNL     1      26.932   3.323  53.961  1.00  0.00     0.170 HD
BRANCH  10  12
ATOM     12  C   UNL     1      28.823   2.668  53.426  1.00  0.00     0.044 A 
ATOM     13  C   UNL     1      29.437   1.651  52.654  1.00  0.00     0.052 A 
ATOM     14  C   UNL     1      29.514   3.163  54.553  1.00  0.00     0.039 A 
ATOM     15  C   UNL     1      30.745   1.233  52.913  1.00  0.00     0.049 A 
ATOM     16  C   UNL     1      30.855   2.752  54.803  1.00  0.00     0.060 A 
ATOM     17  C   UNL     1      31.434   1.768  53.997  1.00  0.00     0.039 A 
BRANCH  15  18
ATOM     18  N   UNL     1      31.378   0.257  52.128  1.00  0.00    -0.306 N 
ATOM     19  C   UNL     1      32.701   0.205  51.694  1.00  0.00     0.116 A 
ATOM     20  C   UNL     1      30.800  -0.801  51.547  1.00  0.00     0.204 A 
ATOM     21  C   UNL     1      32.839  -0.872  50.891  1.00  0.00     0.056 A 
ATOM     22  N   UNL     1      31.647  -1.507  50.837  1.00  0.00    -0.242 NA
ATOM     23  C   UNL     1      34.089  -1.359  50.197  1.00  0.00     0.068 C 
ENDBRANCH  15  18
BRANCH  16  24
ATOM     24  C   UNL     1      31.584   3.337  55.968  1.00  0.00     0.416 C 
ATOM     25  F   UNL     1      30.978   4.392  56.548  1.00  0.00    -0.166 F 
ATOM     26  F   UNL     1      31.650   2.472  56.973  1.00  0.00    -0.166 F 
ATOM     27  F   UNL     1      32.795   3.822  55.625  1.00  0.00    -0.166 F 
ENDBRANCH  16  24
ENDBRANCH  10  12
ENDBRANCH   1   8
BRANCH   6  28
ATOM     28  N   UNL     1      22.971   4.498  54.373  1.00  0.00    -0.324 N 
ATOM     29  H   UNL     1      22.431   3.776  54.871  1.00  0.00     0.170 HD
BRANCH  28  30
ATOM     30  C   UNL     1      23.113   5.774  54.923  1.00  0.00     0.227 A 
ATOM     31  N   UNL     1      24.041   6.220  55.760  1.00  0.00    -0.221 NA
ATOM     32  N   UNL     1      22.055   6.519  54.513  1.00  0.00    -0.213 NA
ATOM     33  C   UNL     1      23.919   7.496  56.174  1.00  0.00     0.117 A 
ATOM     34  C   UNL     1      21.959   7.771  54.977  1.00  0.00     0.077 A 
ATOM     35  C   UNL     1      22.888   8.277  55.816  1.00  0.00     0.049 A 
BRANCH  34  36
ATOM     36  C   UNL     1      20.803   8.557  54.471  1.00  0.00     0.019 A 
ATOM     37  C   UNL     1      20.924   9.414  53.366  1.00  0.00     0.013 A 
ATOM     38  C   UNL     1      19.548   8.471  55.105  1.00  0.00     0.121 A 
ATOM     39  C   UNL     1      19.816  10.143  52.953  1.00  0.00     0.021 A 
ATOM     40  N   UNL     1      18.479   9.177  54.717  1.00  0.00    -0.264 NA
ATOM     41  C   UNL     1      18.616   9.970  53.641  1.00  0.00     0.111 A 
ENDBRANCH  34  36
ENDBRANCH  28  30
ENDBRANCH   6  28
TORSDOF 7
ENDMDL
MODEL 18
REMARK VINA RESULT:   -10.588      8.221     14.908
REMARK INTER + INTRA:         -14.027
REMARK INTER:                 -12.676
REMARK INTRA:                  -1.351
REMARK CONF_INDEPENDENT:        2.088
REMARK UNBOUND:                -1.351
REMARK SMILES Cc1cn(-c2cc(NC(=O)c3ccc(C)c(Nc4nccc(-c5cccnc5)n4)c3)cc(C(F)(F)F)c2)cn1
REMARK SMILES IDX 11 1 12 2 13 3 14 4 15 5 16 6 30 7 9 8 10 9 8 10 7 12 6 13
REMARK SMILES IDX 31 14 5 15 32 16 37 17 4 18 3 19 38 20 2 21 39 22 1 23 33 24
REMARK SMILES IDX 34 25 35 26 36 27 17 28 18 30 19 31 29 32 20 33 22 34 21 35
REMARK SMILES IDX 23 36 24 37 28 38 25 39 27 40 26 41
REMARK H PARENT 8 11 17 29
ROOT
ATOM      1  C   UNL     1      36.159  -1.602  49.556  1.00  0.00     0.042 A 
ATOM      2  C   UNL     1      35.435  -2.778  49.310  1.00  0.00     0.014 A 
ATOM      3  C   UNL     1      34.042  -2.804  49.386  1.00  0.00     0.006 A 
ATOM      4  C   UNL     1      33.324  -1.689  49.788  1.00  0.00    -0.027 A 
ATOM      5  C   UNL     1      31.805  -1.733  49.874  1.00  0.00     0.046 C 
ATOM      6  C   UNL     1      34.044  -0.547  50.134  1.00  0.00     0.045 A 
ATOM      7  C   UNL     1      35.441  -0.534  50.027  1.00  0.00     0.040 A 
ENDROOT
BRANCH   1   8
ATOM      8  C   UNL     1      37.631  -1.515  49.622  1.00  0.00     0.255 C 
ATOM      9  O   UNL     1      38.069  -0.755  50.451  1.00  0.00    -0.269 OA
ATOM     10  N   UNL     1      38.310  -2.456  48.948  1.00  0.00    -0.322 N 
ATOM     11  H   UNL     1      37.758  -3.119  48.387  1.00  0.00     0.170 HD
BRANCH  10  12
ATOM     12  C   UNL     1      39.690  -2.616  48.938  1.00  0.00     0.044 A 
ATOM     13  C   UNL     1      40.436  -2.570  50.141  1.00  0.00     0.052 A 
ATOM     14  C   UNL     1      40.393  -2.708  47.716  1.00  0.00     0.039 A 
ATOM     15  C   UNL     1      41.824  -2.740  50.142  1.00  0.00     0.049 A 
ATOM     16  C   UNL     1      41.803  -2.904  47.721  1.00  0.00     0.060 A 
ATOM     17  C   UNL     1      42.497  -2.882  48.933  1.00  0.00     0.039 A 
BRANCH  15  18
ATOM     18  N   UNL     1      42.567  -2.739  51.332  1.00  0.00    -0.306 N 
ATOM     19  C   UNL     1      42.599  -3.694  52.346  1.00  0.00     0.116 A 
ATOM     20  C   UNL     1      43.346  -1.751  51.788  1.00  0.00     0.204 A 
ATOM     21  C   UNL     1      43.390  -3.231  53.338  1.00  0.00     0.056 A 
ATOM     22  N   UNL     1      43.874  -2.028  52.955  1.00  0.00    -0.242 NA
ATOM     23  C   UNL     1      43.749  -3.913  54.635  1.00  0.00     0.068 C 
ENDBRANCH  15  18
BRANCH  16  24
ATOM     24  C   UNL     1      42.514  -3.058  46.415  1.00  0.00     0.416 C 
ATOM     25  F   UNL     1      43.859  -3.095  46.500  1.00  0.00    -0.166 F 
ATOM     26  F   UNL     1      42.242  -4.233  45.860  1.00  0.00    -0.166 F 
ATOM     27  F   UNL     1      42.281  -2.026  45.579  1.00  0.00    -0.166 F 
ENDBRANCH  16  24
ENDBRANCH  10  12
ENDBRANCH   1   8
BRANCH   6  28
ATOM     28  N   UNL     1      33.337   0.637  50.385  1.00  0.00    -0.324 N 
ATOM     29  H   UNL     1      32.958   1.191  49.604  1.00  0.00     0.170 HD
BRANCH  28  30
ATOM     30  C   UNL     1      33.151   1.058  51.703  1.00  0.00     0.227 A 
ATOM     31  N   UNL     1      33.848   1.947  52.399  1.00  0.00    -0.221 NA
ATOM     32  N   UNL     1      32.135   0.327  52.229  1.00  0.00    -0.213 NA
ATOM     33  C   UNL     1      33.479   2.137  53.680  1.00  0.00     0.117 A 
ATOM     34  C   UNL     1      31.825   0.528  53.515  1.00  0.00     0.077 A 
ATOM     35  C   UNL     1      32.494   1.434  54.261  1.00  0.00     0.049 A 
BRANCH  34  36
ATOM     36  C   UNL     1      30.684  -0.271  54.034  1.00  0.00     0.019 A 
ATOM     37  C   UNL     1      29.609   0.332  54.706  1.00  0.00     0.013 A 
ATOM     38  C   UNL     1      30.661  -1.671  53.876  1.00  0.00     0.121 A 
ATOM     39  C   UNL     1      28.582  -0.468  55.191  1.00  0.00     0.021 A 
ATOM     40  N   UNL     1      29.678  -2.448  54.348  1.00  0.00    -0.264 NA
ATOM     41  C   UNL     1      28.649  -1.842  54.964  1.00  0.00     0.111 A 
ENDBRANCH  34  36
ENDBRANCH  28  30
ENDBRANCH   6  28
TORSDOF 7
ENDMDL
MODEL 19
REMARK VINA RESULT:   -10.531      5.737     10.889
REMARK INTER + INTRA:         -13.789
REMARK INTER:                 -12.619
REMARK INTRA:                  -1.170
REMARK CONF_INDEPENDENT:        2.088
REMARK UNBOUND:                -1.170
REMARK SMILES Cc1cn(-c2cc(NC(=O)c3ccc(C)c(Nc4nccc(-c5cccnc5)n4)c3)cc(C(F)(F)F)c2)cn1
REMARK SMILES IDX 11 1 12 2 13 3 14 4 15 5 16 6 30 7 9 8 10 9 8 10 7 12 6 13
REMARK SMILES IDX 31 14 5 15 32 16 37 17 4 18 3 19 38 20 2 21 39 22 1 23 33 24
REMARK SMILES IDX 34 25 35 26 36 27 17 28 18 30 19 31 29 32 20 33 22 34 21 35
REMARK SMILES IDX 23 36 24 37 28 38 25 39 27 40 26 41
REMARK H PARENT 8 11 17 29
ROOT
ATOM      1  C   UNL     1      22.351   6.461  55.209  1.00  0.00     0.042 A 
ATOM      2  C   UNL     1      21.601   7.585  54.832  1.00  0.00     0.014 A 
ATOM      3  C   UNL     1      21.127   8.494  55.779  1.00  0.00     0.006 A 
ATOM      4  C   UNL     1      21.309   8.278  57.136  1.00  0.00    -0.027 A 
ATOM      5  C   UNL     1      20.781   9.274  58.158  1.00  0.00     0.046 C 
ATOM      6  C   UNL     1      21.964   7.110  57.522  1.00  0.00     0.045 A 
ATOM      7  C   UNL     1      22.453   6.223  56.555  1.00  0.00     0.040 A 
ENDROOT
BRANCH   1   8
ATOM      8  C   UNL     1      22.780   5.387  54.292  1.00  0.00     0.255 C 
ATOM      9  O   UNL     1      21.896   4.683  53.869  1.00  0.00    -0.269 OA
ATOM     10  N   UNL     1      24.040   5.466  53.837  1.00  0.00    -0.322 N 
ATOM     11  H   UNL     1      24.626   6.225  54.211  1.00  0.00     0.170 HD
BRANCH  10  12
ATOM     12  C   UNL     1      24.625   4.616  52.906  1.00  0.00     0.044 A 
ATOM     13  C   UNL     1      23.904   4.175  51.769  1.00  0.00     0.052 A 
ATOM     14  C   UNL     1      25.910   4.078  53.136  1.00  0.00     0.039 A 
ATOM     15  C   UNL     1      24.489   3.329  50.823  1.00  0.00     0.049 A 
ATOM     16  C   UNL     1      26.512   3.233  52.159  1.00  0.00     0.060 A 
ATOM     17  C   UNL     1      25.776   2.847  51.037  1.00  0.00     0.039 A 
BRANCH  15  18
ATOM     18  N   UNL     1      23.798   2.920  49.672  1.00  0.00    -0.306 N 
ATOM     19  C   UNL     1      22.937   1.837  49.507  1.00  0.00     0.116 A 
ATOM     20  C   UNL     1      23.900   3.447  48.447  1.00  0.00     0.204 A 
ATOM     21  C   UNL     1      22.573   1.782  48.207  1.00  0.00     0.056 A 
ATOM     22  N   UNL     1      23.160   2.817  47.567  1.00  0.00    -0.242 NA
ATOM     23  C   UNL     1      21.639   0.798  47.544  1.00  0.00     0.068 C 
ENDBRANCH  15  18
BRANCH  16  24
ATOM     24  C   UNL     1      27.897   2.726  52.399  1.00  0.00     0.416 C 
ATOM     25  F   UNL     1      28.812   3.116  51.490  1.00  0.00    -0.166 F 
ATOM     26  F   UNL     1      28.398   3.221  53.524  1.00  0.00    -0.166 F 
ATOM     27  F   UNL     1      27.965   1.379  52.354  1.00  0.00    -0.166 F 
ENDBRANCH  16  24
ENDBRANCH  10  12
ENDBRANCH   1   8
BRANCH   6  28
ATOM     28  N   UNL     1      22.302   6.950  58.872  1.00  0.00    -0.324 N 
ATOM     29  H   UNL     1      21.758   6.313  59.472  1.00  0.00     0.170 HD
BRANCH  28  30
ATOM     30  C   UNL     1      23.382   7.661  59.398  1.00  0.00     0.227 A 
ATOM     31  N   UNL     1      23.678   8.947  59.262  1.00  0.00    -0.221 NA
ATOM     32  N   UNL     1      24.180   6.775  60.049  1.00  0.00    -0.213 NA
ATOM     33  C   UNL     1      24.816   9.372  59.844  1.00  0.00     0.117 A 
ATOM     34  C   UNL     1      25.317   7.238  60.583  1.00  0.00     0.077 A 
ATOM     35  C   UNL     1      25.653   8.542  60.487  1.00  0.00     0.049 A 
BRANCH  34  36
ATOM     36  C   UNL     1      26.137   6.237  61.314  1.00  0.00     0.019 A 
ATOM     37  C   UNL     1      26.400   6.363  62.687  1.00  0.00     0.013 A 
ATOM     38  C   UNL     1      26.690   5.133  60.636  1.00  0.00     0.121 A 
ATOM     39  C   UNL     1      27.194   5.410  63.312  1.00  0.00     0.021 A 
ATOM     40  N   UNL     1      27.463   4.216  61.231  1.00  0.00    -0.264 NA
ATOM     41  C   UNL     1      27.677   4.347  62.551  1.00  0.00     0.111 A 
ENDBRANCH  34  36
ENDBRANCH  28  30
ENDBRANCH   6  28
TORSDOF 7
ENDMDL
MODEL 20
REMARK VINA RESULT:   -10.395      5.197      8.110
REMARK INTER + INTRA:         -13.681
REMARK INTER:                 -12.483
REMARK INTRA:                  -1.197
REMARK CONF_INDEPENDENT:        2.088
REMARK UNBOUND:                -1.197
REMARK SMILES Cc1cn(-c2cc(NC(=O)c3ccc(C)c(Nc4nccc(-c5cccnc5)n4)c3)cc(C(F)(F)F)c2)cn1
REMARK SMILES IDX 11 1 12 2 13 3 14 4 15 5 16 6 30 7 9 8 10 9 8 10 7 12 6 13
REMARK SMILES IDX 31 14 5 15 32 16 37 17 4 18 3 19 38 20 2 21 39 22 1 23 33 24
REMARK SMILES IDX 34 25 35 26 36 27 17 28 18 30 19 31 29 32 20 33 22 34 21 35
REMARK SMILES IDX 23 36 24 37 28 38 25 39 27 40 26 41
REMARK H PARENT 8 11 17 29
ROOT
ATOM      1  C   UNL     1      24.448   5.910  54.224  1.00  0.00     0.042 A 
ATOM      2  C   UNL     1      23.860   6.635  53.177  1.00  0.00     0.014 A 
ATOM      3  C   UNL     1      23.751   6.099  51.893  1.00  0.00     0.006 A 
ATOM      4  C   UNL     1      24.294   4.862  51.583  1.00  0.00    -0.027 A 
ATOM      5  C   UNL     1      24.174   4.293  50.176  1.00  0.00     0.046 C 
ATOM      6  C   UNL     1      24.971   4.182  52.594  1.00  0.00     0.045 A 
ATOM      7  C   UNL     1      25.047   4.726  53.882  1.00  0.00     0.040 A 
ENDROOT
BRANCH   1   8
ATOM      8  C   UNL     1      24.718   6.446  55.573  1.00  0.00     0.255 C 
ATOM      9  O   UNL     1      25.817   6.918  55.733  1.00  0.00    -0.269 OA
ATOM     10  N   UNL     1      23.654   6.580  56.380  1.00  0.00    -0.322 N 
ATOM     11  H   UNL     1      22.751   6.239  56.023  1.00  0.00     0.170 HD
BRANCH  10  12
ATOM     12  C   UNL     1      23.661   7.135  57.653  1.00  0.00     0.044 A 
ATOM     13  C   UNL     1      24.609   6.723  58.622  1.00  0.00     0.052 A 
ATOM     14  C   UNL     1      22.648   8.036  58.049  1.00  0.00     0.039 A 
ATOM     15  C   UNL     1      24.630   7.283  59.902  1.00  0.00     0.049 A 
ATOM     16  C   UNL     1      22.684   8.622  59.346  1.00  0.00     0.060 A 
ATOM     17  C   UNL     1      23.656   8.209  60.261  1.00  0.00     0.039 A 
BRANCH  15  18
ATOM     18  N   UNL     1      25.591   6.912  60.855  1.00  0.00    -0.306 N 
ATOM     19  C   UNL     1      25.817   5.663  61.430  1.00  0.00     0.116 A 
ATOM     20  C   UNL     1      26.448   7.723  61.486  1.00  0.00     0.204 A 
ATOM     21  C   UNL     1      26.789   5.796  62.359  1.00  0.00     0.056 A 
ATOM     22  N   UNL     1      27.193   7.086  62.356  1.00  0.00    -0.242 NA
ATOM     23  C   UNL     1      27.392   4.722  63.233  1.00  0.00     0.068 C 
ENDBRANCH  15  18
BRANCH  16  24
ATOM     24  C   UNL     1      21.634   9.618  59.718  1.00  0.00     0.416 C 
ATOM     25  F   UNL     1      21.066   9.424  60.925  1.00  0.00    -0.166 F 
ATOM     26  F   UNL     1      22.153  10.833  59.850  1.00  0.00    -0.166 F 
ATOM     27  F   UNL     1      20.584   9.596  58.871  1.00  0.00    -0.166 F 
ENDBRANCH  16  24
ENDBRANCH  10  12
ENDBRANCH   1   8
BRANCH   6  28
ATOM     28  N   UNL     1      25.384   2.866  52.350  1.00  0.00    -0.324 N 
ATOM     29  H   UNL     1      24.699   2.097  52.355  1.00  0.00     0.170 HD
BRANCH  28  30
ATOM     30  C   UNL     1      26.733   2.605  52.100  1.00  0.00     0.227 A 
ATOM     31  N   UNL     1      27.559   3.222  51.266  1.00  0.00    -0.221 NA
ATOM     32  N   UNL     1      27.081   1.510  52.824  1.00  0.00    -0.213 NA
ATOM     33  C   UNL     1      28.813   2.736  51.184  1.00  0.00     0.117 A 
ATOM     34  C   UNL     1      28.328   1.044  52.686  1.00  0.00     0.077 A 
ATOM     35  C   UNL     1      29.212   1.648  51.863  1.00  0.00     0.049 A 
BRANCH  34  36
ATOM     36  C   UNL     1      28.670  -0.133  53.526  1.00  0.00     0.019 A 
ATOM     37  C   UNL     1      27.893  -0.495  54.637  1.00  0.00     0.013 A 
ATOM     38  C   UNL     1      29.805  -0.916  53.232  1.00  0.00     0.121 A 
ATOM     39  C   UNL     1      28.275  -1.591  55.400  1.00  0.00     0.021 A 
ATOM     40  N   UNL     1      30.183  -1.968  53.969  1.00  0.00    -0.264 NA
ATOM     41  C   UNL     1      29.407  -2.307  55.011  1.00  0.00     0.111 A 
ENDBRANCH  34  36
ENDBRANCH  28  30
ENDBRANCH   6  28
TORSDOF 7
ENDMDL
