MODEL 1
REMARK VINA RESULT:   -14.412      0.000      0.000
REMARK INTER + INTRA:         -17.668
REMARK INTER:                 -16.500
REMARK INTRA:                  -1.169
REMARK CONF_INDEPENDENT:        2.088
REMARK UNBOUND:                -1.169
REMARK SMILES Cc1cn(-c2cc(NC(=O)c3ccc(C)c(Nc4nccc(-c5cccnc5)n4)c3)cc(C(F)(F)F)c2)cn1
REMARK SMILES IDX 11 1 12 2 13 3 14 4 15 5 16 6 30 7 9 8 10 9 8 10 7 12 6 13
REMARK SMILES IDX 31 14 5 15 32 16 37 17 4 18 3 19 38 20 2 21 39 22 1 23 33 24
REMARK SMILES IDX 34 25 35 26 36 27 17 28 18 30 19 31 29 32 20 33 22 34 21 35
REMARK SMILES IDX 23 36 24 37 28 38 25 39 27 40 26 41
REMARK H PARENT 8 11 17 29
ROOT
ATOM      1  C   UNL     1      27.983   1.738  53.060  1.00  0.00     0.042 A 
ATOM      2  C   UNL     1      27.690   1.193  54.320  1.00  0.00     0.014 A 
ATOM      3  C   UNL     1      28.405   0.106  54.825  1.00  0.00     0.006 A 
ATOM      4  C   UNL     1      29.376  -0.530  54.068  1.00  0.00    -0.027 A 
ATOM      5  C   UNL     1      30.142  -1.719  54.630  1.00  0.00     0.046 C 
ATOM      6  C   UNL     1      29.599  -0.058  52.776  1.00  0.00     0.045 A 
ATOM      7  C   UNL     1      28.889   1.049  52.296  1.00  0.00     0.040 A 
ENDROOT
BRANCH   1   8
ATOM      8  C   UNL     1      27.199   2.798  52.398  1.00  0.00     0.255 C 
ATOM      9  O   UNL     1      27.511   3.038  51.257  1.00  0.00    -0.269 OA
ATOM     10  N   UNL     1      26.085   3.195  53.032  1.00  0.00    -0.322 N 
ATOM     11  H   UNL     1      25.900   2.779  53.956  1.00  0.00     0.170 HD
BRANCH  10  12
ATOM     12  C   UNL     1      25.158   4.114  52.556  1.00  0.00     0.044 A 
ATOM     13  C   UNL     1      24.230   4.730  53.431  1.00  0.00     0.052 A 
ATOM     14  C   UNL     1      25.041   4.364  51.171  1.00  0.00     0.039 A 
ATOM     15  C   UNL     1      23.301   5.663  52.964  1.00  0.00     0.049 A 
ATOM     16  C   UNL     1      24.109   5.332  50.700  1.00  0.00     0.060 A 
ATOM     17  C   UNL     1      23.232   5.938  51.602  1.00  0.00     0.039 A 
BRANCH  15  18
ATOM     18  N   UNL     1      22.405   6.310  53.829  1.00  0.00    -0.306 N 
ATOM     19  C   UNL     1      22.150   6.056  55.175  1.00  0.00     0.116 A 
ATOM     20  C   UNL     1      21.528   7.267  53.504  1.00  0.00     0.204 A 
ATOM     21  C   UNL     1      21.149   6.870  55.576  1.00  0.00     0.056 A 
ATOM     22  N   UNL     1      20.796   7.642  54.525  1.00  0.00    -0.242 NA
ATOM     23  C   UNL     1      20.534   6.978  56.950  1.00  0.00     0.068 C 
ENDBRANCH  15  18
BRANCH  16  24
ATOM     24  C   UNL     1      24.047   5.621  49.235  1.00  0.00     0.416 C 
ATOM     25  F   UNL     1      24.876   6.596  48.812  1.00  0.00    -0.166 F 
ATOM     26  F   UNL     1      24.464   4.578  48.525  1.00  0.00    -0.166 F 
ATOM     27  F   UNL     1      22.830   6.054  48.848  1.00  0.00    -0.166 F 
ENDBRANCH  16  24
ENDBRANCH  10  12
ENDBRANCH   1   8
BRANCH   6  28
ATOM     28  N   UNL     1      30.682  -0.577  52.055  1.00  0.00    -0.324 N 
ATOM     29  H   UNL     1      30.547  -1.371  51.413  1.00  0.00     0.170 HD
BRANCH  28  30
ATOM     30  C   UNL     1      31.948  -0.009  52.212  1.00  0.00     0.227 A 
ATOM     31  N   UNL     1      32.334   0.944  53.051  1.00  0.00    -0.221 NA
ATOM     32  N   UNL     1      32.764  -0.552  51.272  1.00  0.00    -0.213 NA
ATOM     33  C   UNL     1      33.617   1.343  52.965  1.00  0.00     0.117 A 
ATOM     34  C   UNL     1      34.021  -0.101  51.204  1.00  0.00     0.077 A 
ATOM     35  C   UNL     1      34.466   0.855  52.047  1.00  0.00     0.049 A 
BRANCH  34  36
ATOM     36  C   UNL     1      34.883  -0.751  50.182  1.00  0.00     0.019 A 
ATOM     37  C   UNL     1      36.207  -0.338  49.966  1.00  0.00     0.013 A 
ATOM     38  C   UNL     1      34.381  -1.800  49.387  1.00  0.00     0.121 A 
ATOM     39  C   UNL     1      36.957  -0.966  48.980  1.00  0.00     0.021 A 
ATOM     40  N   UNL     1      35.097  -2.404  48.430  1.00  0.00    -0.264 NA
ATOM     41  C   UNL     1      36.369  -2.006  48.262  1.00  0.00     0.111 A 
ENDBRANCH  34  36
ENDBRANCH  28  30
ENDBRANCH   6  28
TORSDOF 7
ENDMDL
MODEL 2
REMARK VINA RESULT:   -13.375      2.229      3.685
REMARK INTER + INTRA:         -16.667
REMARK INTER:                 -15.463
REMARK INTRA:                  -1.204
REMARK CONF_INDEPENDENT:        2.088
REMARK UNBOUND:                -1.204
REMARK SMILES Cc1cn(-c2cc(NC(=O)c3ccc(C)c(Nc4nccc(-c5cccnc5)n4)c3)cc(C(F)(F)F)c2)cn1
REMARK SMILES IDX 11 1 12 2 13 3 14 4 15 5 16 6 30 7 9 8 10 9 8 10 7 12 6 13
REMARK SMILES IDX 31 14 5 15 32 16 37 17 4 18 3 19 38 20 2 21 39 22 1 23 33 24
REMARK SMILES IDX 34 25 35 26 36 27 17 28 18 30 19 31 29 32 20 33 22 34 21 35
REMARK SMILES IDX 23 36 24 37 28 38 25 39 27 40 26 41
REMARK H PARENT 8 11 17 29
ROOT
ATOM      1  C   UNL     1      28.161   1.283  53.528  1.00  0.00     0.042 A 
ATOM      2  C   UNL     1      27.771   0.631  54.707  1.00  0.00     0.014 A 
ATOM      3  C   UNL     1      28.425  -0.519  55.153  1.00  0.00     0.006 A 
ATOM      4  C   UNL     1      29.431  -1.109  54.405  1.00  0.00    -0.027 A 
ATOM      5  C   UNL     1      30.130  -2.367  54.899  1.00  0.00     0.046 C 
ATOM      6  C   UNL     1      29.753  -0.524  53.181  1.00  0.00     0.045 A 
ATOM      7  C   UNL     1      29.102   0.644  52.763  1.00  0.00     0.040 A 
ENDROOT
BRANCH   1   8
ATOM      8  C   UNL     1      27.449   2.424  52.919  1.00  0.00     0.255 C 
ATOM      9  O   UNL     1      27.869   2.784  51.847  1.00  0.00    -0.269 OA
ATOM     10  N   UNL     1      26.282   2.764  53.488  1.00  0.00    -0.322 N 
ATOM     11  H   UNL     1      26.009   2.251  54.338  1.00  0.00     0.170 HD
BRANCH  10  12
ATOM     12  C   UNL     1      25.409   3.745  53.035  1.00  0.00     0.044 A 
ATOM     13  C   UNL     1      25.266   4.007  51.650  1.00  0.00     0.052 A 
ATOM     14  C   UNL     1      24.736   4.585  53.949  1.00  0.00     0.039 A 
ATOM     15  C   UNL     1      24.383   4.985  51.184  1.00  0.00     0.049 A 
ATOM     16  C   UNL     1      23.820   5.565  53.472  1.00  0.00     0.060 A 
ATOM     17  C   UNL     1      23.687   5.771  52.097  1.00  0.00     0.039 A 
BRANCH  15  18
ATOM     18  N   UNL     1      24.202   5.224  49.813  1.00  0.00    -0.306 N 
ATOM     19  C   UNL     1      23.588   6.307  49.186  1.00  0.00     0.116 A 
ATOM     20  C   UNL     1      24.509   4.395  48.808  1.00  0.00     0.204 A 
ATOM     21  C   UNL     1      23.568   6.069  47.857  1.00  0.00     0.056 A 
ATOM     22  N   UNL     1      24.178   4.883  47.638  1.00  0.00    -0.242 NA
ATOM     23  C   UNL     1      23.026   6.956  46.762  1.00  0.00     0.068 C 
ENDBRANCH  15  18
BRANCH  16  24
ATOM     24  C   UNL     1      23.076   6.400  54.463  1.00  0.00     0.416 C 
ATOM     25  F   UNL     1      22.288   5.709  55.312  1.00  0.00    -0.166 F 
ATOM     26  F   UNL     1      23.911   7.008  55.297  1.00  0.00    -0.166 F 
ATOM     27  F   UNL     1      22.221   7.259  53.871  1.00  0.00    -0.166 F 
ENDBRANCH  16  24
ENDBRANCH  10  12
ENDBRANCH   1   8
BRANCH   6  28
ATOM     28  N   UNL     1      30.872  -1.004  52.487  1.00  0.00    -0.324 N 
ATOM     29  H   UNL     1      30.830  -1.909  51.997  1.00  0.00     0.170 HD
BRANCH  28  30
ATOM     30  C   UNL     1      32.044  -0.246  52.465  1.00  0.00     0.227 A 
ATOM     31  N   UNL     1      32.349   0.835  53.171  1.00  0.00    -0.221 NA
ATOM     32  N   UNL     1      32.849  -0.760  51.500  1.00  0.00    -0.213 NA
ATOM     33  C   UNL     1      33.544   1.405  52.921  1.00  0.00     0.117 A 
ATOM     34  C   UNL     1      34.012  -0.141  51.265  1.00  0.00     0.077 A 
ATOM     35  C   UNL     1      34.376   0.952  51.970  1.00  0.00     0.049 A 
BRANCH  34  36
ATOM     36  C   UNL     1      34.872  -0.763  50.225  1.00  0.00     0.019 A 
ATOM     37  C   UNL     1      36.181  -0.313  49.987  1.00  0.00     0.013 A 
ATOM     38  C   UNL     1      34.385  -1.822  49.433  1.00  0.00     0.121 A 
ATOM     39  C   UNL     1      36.930  -0.916  48.985  1.00  0.00     0.021 A 
ATOM     40  N   UNL     1      35.100  -2.401  48.460  1.00  0.00    -0.264 NA
ATOM     41  C   UNL     1      36.357  -1.968  48.271  1.00  0.00     0.111 A 
ENDBRANCH  34  36
ENDBRANCH  28  30
ENDBRANCH   6  28
TORSDOF 7
ENDMDL
MODEL 3
REMARK VINA RESULT:   -12.207      1.871      2.428
REMARK INTER + INTRA:         -15.478
REMARK INTER:                 -14.295
REMARK INTRA:                  -1.183
REMARK CONF_INDEPENDENT:        2.088
REMARK UNBOUND:                -1.183
REMARK SMILES Cc1cn(-c2cc(NC(=O)c3ccc(C)c(Nc4nccc(-c5cccnc5)n4)c3)cc(C(F)(F)F)c2)cn1
REMARK SMILES IDX 11 1 12 2 13 3 14 4 15 5 16 6 30 7 9 8 10 9 8 10 7 12 6 13
REMARK SMILES IDX 31 14 5 15 32 16 37 17 4 18 3 19 38 20 2 21 39 22 1 23 33 24
REMARK SMILES IDX 34 25 35 26 36 27 17 28 18 30 19 31 29 32 20 33 22 34 21 35
REMARK SMILES IDX 23 36 24 37 28 38 25 39 27 40 26 41
REMARK H PARENT 8 11 17 29
ROOT
ATOM      1  C   UNL     1      28.319   1.703  52.862  1.00  0.00     0.042 A 
ATOM      2  C   UNL     1      27.788   0.964  53.931  1.00  0.00     0.014 A 
ATOM      3  C   UNL     1      28.538  -0.017  54.580  1.00  0.00     0.006 A 
ATOM      4  C   UNL     1      29.808  -0.358  54.143  1.00  0.00    -0.027 A 
ATOM      5  C   UNL     1      30.611  -1.436  54.856  1.00  0.00     0.046 C 
ATOM      6  C   UNL     1      30.301   0.300  53.017  1.00  0.00     0.045 A 
ATOM      7  C   UNL     1      29.543   1.299  52.394  1.00  0.00     0.040 A 
ENDROOT
BRANCH   1   8
ATOM      8  C   UNL     1      27.559   2.664  52.041  1.00  0.00     0.255 C 
ATOM      9  O   UNL     1      28.190   3.221  51.176  1.00  0.00    -0.269 OA
ATOM     10  N   UNL     1      26.224   2.628  52.171  1.00  0.00    -0.322 N 
ATOM     11  H   UNL     1      25.841   1.985  52.878  1.00  0.00     0.170 HD
BRANCH  10  12
ATOM     12  C   UNL     1      25.312   3.380  51.441  1.00  0.00     0.044 A 
ATOM     13  C   UNL     1      24.869   4.641  51.910  1.00  0.00     0.052 A 
ATOM     14  C   UNL     1      24.714   2.850  50.277  1.00  0.00     0.039 A 
ATOM     15  C   UNL     1      23.959   5.409  51.177  1.00  0.00     0.049 A 
ATOM     16  C   UNL     1      23.805   3.643  49.520  1.00  0.00     0.060 A 
ATOM     17  C   UNL     1      23.418   4.895  50.003  1.00  0.00     0.039 A 
BRANCH  15  18
ATOM     18  N   UNL     1      23.546   6.678  51.612  1.00  0.00    -0.306 N 
ATOM     19  C   UNL     1      23.210   7.096  52.898  1.00  0.00     0.116 A 
ATOM     20  C   UNL     1      23.298   7.746  50.844  1.00  0.00     0.204 A 
ATOM     21  C   UNL     1      22.789   8.378  52.828  1.00  0.00     0.056 A 
ATOM     22  N   UNL     1      22.883   8.776  51.540  1.00  0.00    -0.242 NA
ATOM     23  C   UNL     1      22.338   9.271  53.959  1.00  0.00     0.068 C 
ENDBRANCH  15  18
BRANCH  16  24
ATOM     24  C   UNL     1      23.234   3.081  48.259  1.00  0.00     0.416 C 
ATOM     25  F   UNL     1      24.136   2.543  47.415  1.00  0.00    -0.166 F 
ATOM     26  F   UNL     1      22.444   2.044  48.514  1.00  0.00    -0.166 F 
ATOM     27  F   UNL     1      22.624   4.021  47.508  1.00  0.00    -0.166 F 
ENDBRANCH  16  24
ENDBRANCH  10  12
ENDBRANCH   1   8
BRANCH   6  28
ATOM     28  N   UNL     1      31.638   0.090  52.655  1.00  0.00    -0.324 N 
ATOM     29  H   UNL     1      32.399   0.456  53.244  1.00  0.00     0.170 HD
BRANCH  28  30
ATOM     30  C   UNL     1      31.931  -0.621  51.489  1.00  0.00     0.227 A 
ATOM     31  N   UNL     1      31.104  -1.276  50.684  1.00  0.00    -0.221 NA
ATOM     32  N   UNL     1      33.279  -0.609  51.327  1.00  0.00    -0.213 NA
ATOM     33  C   UNL     1      31.659  -1.920  49.640  1.00  0.00     0.117 A 
ATOM     34  C   UNL     1      33.787  -1.291  50.293  1.00  0.00     0.077 A 
ATOM     35  C   UNL     1      32.985  -1.958  49.436  1.00  0.00     0.049 A 
BRANCH  34  36
ATOM     36  C   UNL     1      35.263  -1.218  50.139  1.00  0.00     0.019 A 
ATOM     37  C   UNL     1      35.961  -2.112  49.312  1.00  0.00     0.013 A 
ATOM     38  C   UNL     1      36.008  -0.249  50.839  1.00  0.00     0.121 A 
ATOM     39  C   UNL     1      37.344  -2.013  49.227  1.00  0.00     0.021 A 
ATOM     40  N   UNL     1      37.342  -0.153  50.767  1.00  0.00    -0.264 NA
ATOM     41  C   UNL     1      37.982  -1.005  49.949  1.00  0.00     0.111 A 
ENDBRANCH  34  36
ENDBRANCH  28  30
ENDBRANCH   6  28
TORSDOF 7
ENDMDL
MODEL 4
REMARK VINA RESULT:   -12.133      1.574      2.262
REMARK INTER + INTRA:         -15.680
REMARK INTER:                 -14.221
REMARK INTRA:                  -1.460
REMARK CONF_INDEPENDENT:        2.088
REMARK UNBOUND:                -1.460
REMARK SMILES Cc1cn(-c2cc(NC(=O)c3ccc(C)c(Nc4nccc(-c5cccnc5)n4)c3)cc(C(F)(F)F)c2)cn1
REMARK SMILES IDX 11 1 12 2 13 3 14 4 15 5 16 6 30 7 9 8 10 9 8 10 7 12 6 13
REMARK SMILES IDX 31 14 5 15 32 16 37 17 4 18 3 19 38 20 2 21 39 22 1 23 33 24
REMARK SMILES IDX 34 25 35 26 36 27 17 28 18 30 19 31 29 32 20 33 22 34 21 35
REMARK SMILES IDX 23 36 24 37 28 38 25 39 27 40 26 41
REMARK H PARENT 8 11 17 29
ROOT
ATOM      1  C   UNL     1      27.977   2.001  52.938  1.00  0.00     0.042 A 
ATOM      2  C   UNL     1      27.570   0.720  53.339  1.00  0.00     0.014 A 
ATOM      3  C   UNL     1      28.404  -0.105  54.094  1.00  0.00     0.006 A 
ATOM      4  C   UNL     1      29.699   0.275  54.407  1.00  0.00    -0.027 A 
ATOM      5  C   UNL     1      30.601  -0.638  55.225  1.00  0.00     0.046 C 
ATOM      6  C   UNL     1      30.146   1.504  53.922  1.00  0.00     0.045 A 
ATOM      7  C   UNL     1      29.285   2.328  53.187  1.00  0.00     0.040 A 
ENDROOT
BRANCH   1   8
ATOM      8  C   UNL     1      27.214   2.885  52.035  1.00  0.00     0.255 C 
ATOM      9  O   UNL     1      27.539   2.846  50.874  1.00  0.00    -0.269 OA
ATOM     10  N   UNL     1      26.100   3.431  52.545  1.00  0.00    -0.322 N 
ATOM     11  H   UNL     1      25.901   3.247  53.539  1.00  0.00     0.170 HD
BRANCH  10  12
ATOM     12  C   UNL     1      25.190   4.223  51.856  1.00  0.00     0.044 A 
ATOM     13  C   UNL     1      24.349   5.132  52.545  1.00  0.00     0.052 A 
ATOM     14  C   UNL     1      24.997   4.053  50.468  1.00  0.00     0.039 A 
ATOM     15  C   UNL     1      23.438   5.940  51.859  1.00  0.00     0.049 A 
ATOM     16  C   UNL     1      24.084   4.893  49.768  1.00  0.00     0.060 A 
ATOM     17  C   UNL     1      23.296   5.798  50.483  1.00  0.00     0.039 A 
BRANCH  15  18
ATOM     18  N   UNL     1      22.631   6.874  52.527  1.00  0.00    -0.306 N 
ATOM     19  C   UNL     1      22.731   8.263  52.546  1.00  0.00     0.116 A 
ATOM     20  C   UNL     1      21.632   6.606  53.377  1.00  0.00     0.204 A 
ATOM     21  C   UNL     1      21.794   8.743  53.392  1.00  0.00     0.056 A 
ATOM     22  N   UNL     1      21.095   7.692  53.877  1.00  0.00    -0.242 NA
ATOM     23  C   UNL     1      21.498  10.184  53.730  1.00  0.00     0.068 C 
ENDBRANCH  15  18
BRANCH  16  24
ATOM     24  C   UNL     1      23.945   4.732  48.289  1.00  0.00     0.416 C 
ATOM     25  F   UNL     1      24.329   3.533  47.807  1.00  0.00    -0.166 F 
ATOM     26  F   UNL     1      22.669   4.779  47.922  1.00  0.00    -0.166 F 
ATOM     27  F   UNL     1      24.711   5.606  47.604  1.00  0.00    -0.166 F 
ENDBRANCH  16  24
ENDBRANCH  10  12
ENDBRANCH   1   8
BRANCH   6  28
ATOM     28  N   UNL     1      31.389   1.980  54.359  1.00  0.00    -0.324 N 
ATOM     29  H   UNL     1      31.439   2.732  55.061  1.00  0.00     0.170 HD
BRANCH  28  30
ATOM     30  C   UNL     1      32.559   1.428  53.836  1.00  0.00     0.227 A 
ATOM     31  N   UNL     1      33.811   1.591  54.244  1.00  0.00    -0.221 NA
ATOM     32  N   UNL     1      32.219   0.713  52.732  1.00  0.00    -0.213 NA
ATOM     33  C   UNL     1      34.767   0.971  53.526  1.00  0.00     0.117 A 
ATOM     34  C   UNL     1      33.207   0.142  52.033  1.00  0.00     0.077 A 
ATOM     35  C   UNL     1      34.496   0.264  52.417  1.00  0.00     0.049 A 
BRANCH  34  36
ATOM     36  C   UNL     1      32.781  -0.657  50.855  1.00  0.00     0.019 A 
ATOM     37  C   UNL     1      31.424  -0.880  50.569  1.00  0.00     0.013 A 
ATOM     38  C   UNL     1      33.738  -1.230  49.994  1.00  0.00     0.121 A 
ATOM     39  C   UNL     1      31.085  -1.656  49.468  1.00  0.00     0.021 A 
ATOM     40  N   UNL     1      33.417  -1.985  48.936  1.00  0.00    -0.264 NA
ATOM     41  C   UNL     1      32.112  -2.161  48.672  1.00  0.00     0.111 A 
ENDBRANCH  34  36
ENDBRANCH  28  30
ENDBRANCH   6  28
TORSDOF 7
ENDMDL
MODEL 5
REMARK VINA RESULT:   -11.978      1.565      3.577
REMARK INTER + INTRA:         -15.659
REMARK INTER:                 -14.066
REMARK INTRA:                  -1.593
REMARK CONF_INDEPENDENT:        2.088
REMARK UNBOUND:                -1.593
REMARK SMILES Cc1cn(-c2cc(NC(=O)c3ccc(C)c(Nc4nccc(-c5cccnc5)n4)c3)cc(C(F)(F)F)c2)cn1
REMARK SMILES IDX 11 1 12 2 13 3 14 4 15 5 16 6 30 7 9 8 10 9 8 10 7 12 6 13
REMARK SMILES IDX 31 14 5 15 32 16 37 17 4 18 3 19 38 20 2 21 39 22 1 23 33 24
REMARK SMILES IDX 34 25 35 26 36 27 17 28 18 30 19 31 29 32 20 33 22 34 21 35
REMARK SMILES IDX 23 36 24 37 28 38 25 39 27 40 26 41
REMARK H PARENT 8 11 17 29
ROOT
ATOM      1  C   UNL     1      27.600   1.714  52.893  1.00  0.00     0.042 A 
ATOM      2  C   UNL     1      27.364   1.098  54.131  1.00  0.00     0.014 A 
ATOM      3  C   UNL     1      28.096  -0.018  54.539  1.00  0.00     0.006 A 
ATOM      4  C   UNL     1      29.027  -0.612  53.702  1.00  0.00    -0.027 A 
ATOM      5  C   UNL     1      29.812  -1.834  54.158  1.00  0.00     0.046 C 
ATOM      6  C   UNL     1      29.192  -0.067  52.430  1.00  0.00     0.045 A 
ATOM      7  C   UNL     1      28.466   1.068  52.049  1.00  0.00     0.040 A 
ENDROOT
BRANCH   1   8
ATOM      8  C   UNL     1      26.792   2.813  52.330  1.00  0.00     0.255 C 
ATOM      9  O   UNL     1      26.916   2.993  51.143  1.00  0.00    -0.269 OA
ATOM     10  N   UNL     1      25.838   3.315  53.129  1.00  0.00    -0.322 N 
ATOM     11  H   UNL     1      25.788   2.944  54.088  1.00  0.00     0.170 HD
BRANCH  10  12
ATOM     12  C   UNL     1      24.912   4.290  52.780  1.00  0.00     0.044 A 
ATOM     13  C   UNL     1      24.068   4.874  53.757  1.00  0.00     0.052 A 
ATOM     14  C   UNL     1      24.707   4.634  51.426  1.00  0.00     0.039 A 
ATOM     15  C   UNL     1      23.140   5.863  53.418  1.00  0.00     0.049 A 
ATOM     16  C   UNL     1      23.777   5.658  51.086  1.00  0.00     0.060 A 
ATOM     17  C   UNL     1      22.986   6.229  52.085  1.00  0.00     0.039 A 
BRANCH  15  18
ATOM     18  N   UNL     1      22.330   6.477  54.385  1.00  0.00    -0.306 N 
ATOM     19  C   UNL     1      22.453   6.455  55.773  1.00  0.00     0.116 A 
ATOM     20  C   UNL     1      21.194   7.150  54.168  1.00  0.00     0.204 A 
ATOM     21  C   UNL     1      21.397   7.113  56.301  1.00  0.00     0.056 A 
ATOM     22  N   UNL     1      20.639   7.568  55.279  1.00  0.00    -0.242 NA
ATOM     23  C   UNL     1      21.098   7.371  57.758  1.00  0.00     0.068 C 
ENDBRANCH  15  18
BRANCH  16  24
ATOM     24  C   UNL     1      23.623   6.044  49.650  1.00  0.00     0.416 C 
ATOM     25  F   UNL     1      23.860   7.344  49.382  1.00  0.00    -0.166 F 
ATOM     26  F   UNL     1      24.530   5.437  48.893  1.00  0.00    -0.166 F 
ATOM     27  F   UNL     1      22.366   5.855  49.200  1.00  0.00    -0.166 F 
ENDBRANCH  16  24
ENDBRANCH  10  12
ENDBRANCH   1   8
BRANCH   6  28
ATOM     28  N   UNL     1      30.237  -0.547  51.630  1.00  0.00    -0.324 N 
ATOM     29  H   UNL     1      30.058  -1.275  50.923  1.00  0.00     0.170 HD
BRANCH  28  30
ATOM     30  C   UNL     1      31.523  -0.030  51.798  1.00  0.00     0.227 A 
ATOM     31  N   UNL     1      32.641  -0.358  51.163  1.00  0.00    -0.221 NA
ATOM     32  N   UNL     1      31.479   0.859  52.823  1.00  0.00    -0.213 NA
ATOM     33  C   UNL     1      33.766   0.271  51.554  1.00  0.00     0.117 A 
ATOM     34  C   UNL     1      32.628   1.434  53.197  1.00  0.00     0.077 A 
ATOM     35  C   UNL     1      33.789   1.147  52.570  1.00  0.00     0.049 A 
BRANCH  34  36
ATOM     36  C   UNL     1      32.521   2.426  54.299  1.00  0.00     0.019 A 
ATOM     37  C   UNL     1      31.431   2.426  55.185  1.00  0.00     0.013 A 
ATOM     38  C   UNL     1      33.513   3.410  54.475  1.00  0.00     0.121 A 
ATOM     39  C   UNL     1      31.371   3.392  56.181  1.00  0.00     0.021 A 
ATOM     40  N   UNL     1      33.456   4.349  55.428  1.00  0.00    -0.264 NA
ATOM     41  C   UNL     1      32.416   4.310  56.277  1.00  0.00     0.111 A 
ENDBRANCH  34  36
ENDBRANCH  28  30
ENDBRANCH   6  28
TORSDOF 7
ENDMDL
MODEL 6
REMARK VINA RESULT:   -11.807      3.150      4.251
REMARK INTER + INTRA:         -14.918
REMARK INTER:                 -13.895
REMARK INTRA:                  -1.023
REMARK CONF_INDEPENDENT:        2.088
REMARK UNBOUND:                -1.023
REMARK SMILES Cc1cn(-c2cc(NC(=O)c3ccc(C)c(Nc4nccc(-c5cccnc5)n4)c3)cc(C(F)(F)F)c2)cn1
REMARK SMILES IDX 11 1 12 2 13 3 14 4 15 5 16 6 30 7 9 8 10 9 8 10 7 12 6 13
REMARK SMILES IDX 31 14 5 15 32 16 37 17 4 18 3 19 38 20 2 21 39 22 1 23 33 24
REMARK SMILES IDX 34 25 35 26 36 27 17 28 18 30 19 31 29 32 20 33 22 34 21 35
REMARK SMILES IDX 23 36 24 37 28 38 25 39 27 40 26 41
REMARK H PARENT 8 11 17 29
ROOT
ATOM      1  C   UNL     1      28.140   2.559  52.609  1.00  0.00     0.042 A 
ATOM      2  C   UNL     1      28.014   3.134  53.883  1.00  0.00     0.014 A 
ATOM      3  C   UNL     1      29.050   3.067  54.815  1.00  0.00     0.006 A 
ATOM      4  C   UNL     1      30.211   2.358  54.550  1.00  0.00    -0.027 A 
ATOM      5  C   UNL     1      31.330   2.287  55.580  1.00  0.00     0.046 C 
ATOM      6  C   UNL     1      30.299   1.697  53.326  1.00  0.00     0.045 A 
ATOM      7  C   UNL     1      29.259   1.798  52.394  1.00  0.00     0.040 A 
ENDROOT
BRANCH   1   8
ATOM      8  C   UNL     1      27.054   2.473  51.612  1.00  0.00     0.255 C 
ATOM      9  O   UNL     1      26.761   1.356  51.261  1.00  0.00    -0.269 OA
ATOM     10  N   UNL     1      26.355   3.598  51.400  1.00  0.00    -0.322 N 
ATOM     11  H   UNL     1      26.669   4.444  51.895  1.00  0.00     0.170 HD
BRANCH  10  12
ATOM     12  C   UNL     1      25.245   3.725  50.574  1.00  0.00     0.044 A 
ATOM     13  C   UNL     1      24.496   2.588  50.181  1.00  0.00     0.052 A 
ATOM     14  C   UNL     1      24.911   4.976  50.009  1.00  0.00     0.039 A 
ATOM     15  C   UNL     1      23.373   2.708  49.358  1.00  0.00     0.049 A 
ATOM     16  C   UNL     1      23.753   5.099  49.189  1.00  0.00     0.060 A 
ATOM     17  C   UNL     1      23.025   3.956  48.851  1.00  0.00     0.039 A 
BRANCH  15  18
ATOM     18  N   UNL     1      22.600   1.594  48.998  1.00  0.00    -0.306 N 
ATOM     19  C   UNL     1      22.208   0.510  49.782  1.00  0.00     0.116 A 
ATOM     20  C   UNL     1      22.149   1.293  47.775  1.00  0.00     0.204 A 
ATOM     21  C   UNL     1      21.547  -0.365  48.992  1.00  0.00     0.056 A 
ATOM     22  N   UNL     1      21.493   0.159  47.747  1.00  0.00    -0.242 NA
ATOM     23  C   UNL     1      20.914  -1.677  49.386  1.00  0.00     0.068 C 
ENDBRANCH  15  18
BRANCH  16  24
ATOM     24  C   UNL     1      23.388   6.445  48.654  1.00  0.00     0.416 C 
ATOM     25  F   UNL     1      23.774   7.486  49.419  1.00  0.00    -0.166 F 
ATOM     26  F   UNL     1      24.021   6.693  47.513  1.00  0.00    -0.166 F 
ATOM     27  F   UNL     1      22.053   6.611  48.550  1.00  0.00    -0.166 F 
ENDBRANCH  16  24
ENDBRANCH  10  12
ENDBRANCH   1   8
BRANCH   6  28
ATOM     28  N   UNL     1      31.521   1.113  52.970  1.00  0.00    -0.324 N 
ATOM     29  H   UNL     1      32.375   1.328  53.504  1.00  0.00     0.170 HD
BRANCH  28  30
ATOM     30  C   UNL     1      31.573   0.235  51.885  1.00  0.00     0.227 A 
ATOM     31  N   UNL     1      30.590  -0.464  51.332  1.00  0.00    -0.221 NA
ATOM     32  N   UNL     1      32.871   0.134  51.499  1.00  0.00    -0.213 NA
ATOM     33  C   UNL     1      30.925  -1.277  50.313  1.00  0.00     0.117 A 
ATOM     34  C   UNL     1      33.159  -0.711  50.503  1.00  0.00     0.077 A 
ATOM     35  C   UNL     1      32.191  -1.431  49.896  1.00  0.00     0.049 A 
BRANCH  34  36
ATOM     36  C   UNL     1      34.587  -0.759  50.094  1.00  0.00     0.019 A 
ATOM     37  C   UNL     1      35.084  -1.786  49.274  1.00  0.00     0.013 A 
ATOM     38  C   UNL     1      35.492   0.226  50.536  1.00  0.00     0.121 A 
ATOM     39  C   UNL     1      36.433  -1.794  48.945  1.00  0.00     0.021 A 
ATOM     40  N   UNL     1      36.795   0.219  50.229  1.00  0.00    -0.264 NA
ATOM     41  C   UNL     1      37.237  -0.760  49.423  1.00  0.00     0.111 A 
ENDBRANCH  34  36
ENDBRANCH  28  30
ENDBRANCH   6  28
TORSDOF 7
ENDMDL
MODEL 7
REMARK VINA RESULT:   -11.517      3.657     11.757
REMARK INTER + INTRA:         -14.739
REMARK INTER:                 -13.606
REMARK INTRA:                  -1.133
REMARK CONF_INDEPENDENT:        2.088
REMARK UNBOUND:                -1.133
REMARK SMILES Cc1cn(-c2cc(NC(=O)c3ccc(C)c(Nc4nccc(-c5cccnc5)n4)c3)cc(C(F)(F)F)c2)cn1
REMARK SMILES IDX 11 1 12 2 13 3 14 4 15 5 16 6 30 7 9 8 10 9 8 10 7 12 6 13
REMARK SMILES IDX 31 14 5 15 32 16 37 17 4 18 3 19 38 20 2 21 39 22 1 23 33 24
REMARK SMILES IDX 34 25 35 26 36 27 17 28 18 30 19 31 29 32 20 33 22 34 21 35
REMARK SMILES IDX 23 36 24 37 28 38 25 39 27 40 26 41
REMARK H PARENT 8 11 17 29
ROOT
ATOM      1  C   UNL     1      25.958   3.682  51.668  1.00  0.00     0.042 A 
ATOM      2  C   UNL     1      25.332   4.048  50.467  1.00  0.00     0.014 A 
ATOM      3  C   UNL     1      24.170   4.820  50.459  1.00  0.00     0.006 A 
ATOM      4  C   UNL     1      23.542   5.186  51.639  1.00  0.00    -0.027 A 
ATOM      5  C   UNL     1      22.271   6.022  51.615  1.00  0.00     0.046 C 
ATOM      6  C   UNL     1      24.102   4.738  52.835  1.00  0.00     0.045 A 
ATOM      7  C   UNL     1      25.283   3.985  52.822  1.00  0.00     0.040 A 
ENDROOT
BRANCH   1   8
ATOM      8  C   UNL     1      27.111   2.766  51.774  1.00  0.00     0.255 C 
ATOM      9  O   UNL     1      27.921   2.848  50.883  1.00  0.00    -0.269 OA
ATOM     10  N   UNL     1      27.263   2.139  52.949  1.00  0.00    -0.322 N 
ATOM     11  H   UNL     1      26.532   2.291  53.658  1.00  0.00     0.170 HD
BRANCH  10  12
ATOM     12  C   UNL     1      28.315   1.301  53.298  1.00  0.00     0.044 A 
ATOM     13  C   UNL     1      29.630   1.555  52.835  1.00  0.00     0.052 A 
ATOM     14  C   UNL     1      28.077   0.112  54.021  1.00  0.00     0.039 A 
ATOM     15  C   UNL     1      30.697   0.724  53.188  1.00  0.00     0.049 A 
ATOM     16  C   UNL     1      29.169  -0.721  54.399  1.00  0.00     0.060 A 
ATOM     17  C   UNL     1      30.454  -0.417  53.945  1.00  0.00     0.039 A 
BRANCH  15  18
ATOM     18  N   UNL     1      32.009   0.990  52.769  1.00  0.00    -0.306 N 
ATOM     19  C   UNL     1      32.650   0.597  51.596  1.00  0.00     0.116 A 
ATOM     20  C   UNL     1      32.963   1.613  53.471  1.00  0.00     0.204 A 
ATOM     21  C   UNL     1      33.936   1.008  51.660  1.00  0.00     0.056 A 
ATOM     22  N   UNL     1      34.103   1.669  52.826  1.00  0.00    -0.242 NA
ATOM     23  C   UNL     1      35.019   0.835  50.622  1.00  0.00     0.068 C 
ENDBRANCH  15  18
BRANCH  16  24
ATOM     24  C   UNL     1      28.895  -1.942  55.216  1.00  0.00     0.416 C 
ATOM     25  F   UNL     1      28.074  -2.841  54.639  1.00  0.00    -0.166 F 
ATOM     26  F   UNL     1      30.002  -2.654  55.394  1.00  0.00    -0.166 F 
ATOM     27  F   UNL     1      28.276  -1.652  56.379  1.00  0.00    -0.166 F 
ENDBRANCH  16  24
ENDBRANCH  10  12
ENDBRANCH   1   8
BRANCH   6  28
ATOM     28  N   UNL     1      23.582   5.228  54.039  1.00  0.00    -0.324 N 
ATOM     29  H   UNL     1      22.604   5.037  54.299  1.00  0.00     0.170 HD
BRANCH  28  30
ATOM     30  C   UNL     1      24.400   5.979  54.886  1.00  0.00     0.227 A 
ATOM     31  N   UNL     1      25.695   6.245  54.771  1.00  0.00    -0.221 NA
ATOM     32  N   UNL     1      23.651   6.360  55.952  1.00  0.00    -0.213 NA
ATOM     33  C   UNL     1      26.256   6.964  55.762  1.00  0.00     0.117 A 
ATOM     34  C   UNL     1      24.259   7.046  56.927  1.00  0.00     0.077 A 
ATOM     35  C   UNL     1      25.571   7.356  56.848  1.00  0.00     0.049 A 
BRANCH  34  36
ATOM     36  C   UNL     1      23.388   7.470  58.054  1.00  0.00     0.019 A 
ATOM     37  C   UNL     1      23.925   7.971  59.250  1.00  0.00     0.013 A 
ATOM     38  C   UNL     1      21.987   7.363  57.955  1.00  0.00     0.121 A 
ATOM     39  C   UNL     1      23.064   8.328  60.280  1.00  0.00     0.021 A 
ATOM     40  N   UNL     1      21.152   7.698  58.946  1.00  0.00    -0.264 NA
ATOM     41  C   UNL     1      21.691   8.199  60.070  1.00  0.00     0.111 A 
ENDBRANCH  34  36
ENDBRANCH  28  30
ENDBRANCH   6  28
TORSDOF 7
ENDMDL
MODEL 8
REMARK VINA RESULT:   -11.429      4.129     11.171
REMARK INTER + INTRA:         -14.708
REMARK INTER:                 -13.517
REMARK INTRA:                  -1.192
REMARK CONF_INDEPENDENT:        2.088
REMARK UNBOUND:                -1.192
REMARK SMILES Cc1cn(-c2cc(NC(=O)c3ccc(C)c(Nc4nccc(-c5cccnc5)n4)c3)cc(C(F)(F)F)c2)cn1
REMARK SMILES IDX 11 1 12 2 13 3 14 4 15 5 16 6 30 7 9 8 10 9 8 10 7 12 6 13
REMARK SMILES IDX 31 14 5 15 32 16 37 17 4 18 3 19 38 20 2 21 39 22 1 23 33 24
REMARK SMILES IDX 34 25 35 26 36 27 17 28 18 30 19 31 29 32 20 33 22 34 21 35
REMARK SMILES IDX 23 36 24 37 28 38 25 39 27 40 26 41
REMARK H PARENT 8 11 17 29
ROOT
ATOM      1  C   UNL     1      25.879   3.918  52.022  1.00  0.00     0.042 A 
ATOM      2  C   UNL     1      25.274   4.382  50.844  1.00  0.00     0.014 A 
ATOM      3  C   UNL     1      24.132   5.184  50.880  1.00  0.00     0.006 A 
ATOM      4  C   UNL     1      23.503   5.485  52.077  1.00  0.00    -0.027 A 
ATOM      5  C   UNL     1      22.255   6.355  52.100  1.00  0.00     0.046 C 
ATOM      6  C   UNL     1      24.040   4.942  53.243  1.00  0.00     0.045 A 
ATOM      7  C   UNL     1      25.201   4.160  53.188  1.00  0.00     0.040 A 
ENDROOT
BRANCH   1   8
ATOM      8  C   UNL     1      27.006   2.967  52.073  1.00  0.00     0.255 C 
ATOM      9  O   UNL     1      27.777   3.026  51.147  1.00  0.00    -0.269 OA
ATOM     10  N   UNL     1      27.191   2.331  53.240  1.00  0.00    -0.322 N 
ATOM     11  H   UNL     1      26.498   2.504  53.982  1.00  0.00     0.170 HD
BRANCH  10  12
ATOM     12  C   UNL     1      28.231   1.460  53.539  1.00  0.00     0.044 A 
ATOM     13  C   UNL     1      29.548   1.717  53.083  1.00  0.00     0.052 A 
ATOM     14  C   UNL     1      27.978   0.239  54.200  1.00  0.00     0.039 A 
ATOM     15  C   UNL     1      30.603   0.852  53.387  1.00  0.00     0.049 A 
ATOM     16  C   UNL     1      29.057  -0.630  54.528  1.00  0.00     0.060 A 
ATOM     17  C   UNL     1      30.346  -0.323  54.085  1.00  0.00     0.039 A 
BRANCH  15  18
ATOM     18  N   UNL     1      31.918   1.119  52.976  1.00  0.00    -0.306 N 
ATOM     19  C   UNL     1      32.622   0.591  51.896  1.00  0.00     0.116 A 
ATOM     20  C   UNL     1      32.815   1.886  53.608  1.00  0.00     0.204 A 
ATOM     21  C   UNL     1      33.884   1.070  51.940  1.00  0.00     0.056 A 
ATOM     22  N   UNL     1      33.975   1.904  52.999  1.00  0.00    -0.242 NA
ATOM     23  C   UNL     1      35.014   0.801  50.975  1.00  0.00     0.068 C 
ENDBRANCH  15  18
BRANCH  16  24
ATOM     24  C   UNL     1      28.768  -1.887  55.282  1.00  0.00     0.416 C 
ATOM     25  F   UNL     1      27.850  -2.694  54.714  1.00  0.00    -0.166 F 
ATOM     26  F   UNL     1      29.837  -2.675  55.324  1.00  0.00    -0.166 F 
ATOM     27  F   UNL     1      28.258  -1.645  56.507  1.00  0.00    -0.166 F 
ENDBRANCH  16  24
ENDBRANCH  10  12
ENDBRANCH   1   8
BRANCH   6  28
ATOM     28  N   UNL     1      23.521   5.363  54.475  1.00  0.00    -0.324 N 
ATOM     29  H   UNL     1      22.762   4.833  54.927  1.00  0.00     0.170 HD
BRANCH  28  30
ATOM     30  C   UNL     1      24.042   6.506  55.085  1.00  0.00     0.227 A 
ATOM     31  N   UNL     1      24.136   7.738  54.601  1.00  0.00    -0.221 NA
ATOM     32  N   UNL     1      24.540   6.137  56.293  1.00  0.00    -0.213 NA
ATOM     33  C   UNL     1      24.727   8.655  55.391  1.00  0.00     0.117 A 
ATOM     34  C   UNL     1      25.148   7.076  57.028  1.00  0.00     0.077 A 
ATOM     35  C   UNL     1      25.252   8.348  56.587  1.00  0.00     0.049 A 
BRANCH  34  36
ATOM     36  C   UNL     1      25.645   6.630  58.356  1.00  0.00     0.019 A 
ATOM     37  C   UNL     1      24.764   6.242  59.378  1.00  0.00     0.013 A 
ATOM     38  C   UNL     1      27.026   6.600  58.629  1.00  0.00     0.121 A 
ATOM     39  C   UNL     1      25.285   5.859  60.608  1.00  0.00     0.021 A 
ATOM     40  N   UNL     1      27.533   6.239  59.815  1.00  0.00    -0.264 NA
ATOM     41  C   UNL     1      26.670   5.848  60.767  1.00  0.00     0.111 A 
ENDBRANCH  34  36
ENDBRANCH  28  30
ENDBRANCH   6  28
TORSDOF 7
ENDMDL
MODEL 9
REMARK VINA RESULT:   -11.069      4.631      7.551
REMARK INTER + INTRA:         -13.825
REMARK INTER:                 -13.157
REMARK INTRA:                  -0.667
REMARK CONF_INDEPENDENT:        2.088
REMARK UNBOUND:                -0.667
REMARK SMILES Cc1cn(-c2cc(NC(=O)c3ccc(C)c(Nc4nccc(-c5cccnc5)n4)c3)cc(C(F)(F)F)c2)cn1
REMARK SMILES IDX 11 1 12 2 13 3 14 4 15 5 16 6 30 7 9 8 10 9 8 10 7 12 6 13
REMARK SMILES IDX 31 14 5 15 32 16 37 17 4 18 3 19 38 20 2 21 39 22 1 23 33 24
REMARK SMILES IDX 34 25 35 26 36 27 17 28 18 30 19 31 29 32 20 33 22 34 21 35
REMARK SMILES IDX 23 36 24 37 28 38 25 39 27 40 26 41
REMARK H PARENT 8 11 17 29
ROOT
ATOM      1  C   UNL     1      23.111   5.944  52.773  1.00  0.00     0.042 A 
ATOM      2  C   UNL     1      22.873   5.732  51.407  1.00  0.00     0.014 A 
ATOM      3  C   UNL     1      23.489   4.689  50.715  1.00  0.00     0.006 A 
ATOM      4  C   UNL     1      24.425   3.873  51.330  1.00  0.00    -0.027 A 
ATOM      5  C   UNL     1      25.095   2.743  50.561  1.00  0.00     0.046 C 
ATOM      6  C   UNL     1      24.744   4.144  52.660  1.00  0.00     0.045 A 
ATOM      7  C   UNL     1      24.095   5.180  53.344  1.00  0.00     0.040 A 
ENDROOT
BRANCH   1   8
ATOM      8  C   UNL     1      22.604   7.093  53.549  1.00  0.00     0.255 C 
ATOM      9  O   UNL     1      23.431   7.916  53.858  1.00  0.00    -0.269 OA
ATOM     10  N   UNL     1      21.270   7.225  53.607  1.00  0.00    -0.322 N 
ATOM     11  H   UNL     1      20.708   6.484  53.166  1.00  0.00     0.170 HD
BRANCH  10  12
ATOM     12  C   UNL     1      20.579   8.270  54.208  1.00  0.00     0.044 A 
ATOM     13  C   UNL     1      19.558   8.962  53.511  1.00  0.00     0.052 A 
ATOM     14  C   UNL     1      20.961   8.744  55.482  1.00  0.00     0.039 A 
ATOM     15  C   UNL     1      18.851  10.008  54.110  1.00  0.00     0.049 A 
ATOM     16  C   UNL     1      20.224   9.795  56.099  1.00  0.00     0.060 A 
ATOM     17  C   UNL     1      19.204  10.430  55.388  1.00  0.00     0.039 A 
BRANCH  15  18
ATOM     18  N   UNL     1      17.810  10.672  53.444  1.00  0.00    -0.306 N 
ATOM     19  C   UNL     1      16.600  11.138  53.955  1.00  0.00     0.116 A 
ATOM     20  C   UNL     1      17.726  10.917  52.131  1.00  0.00     0.204 A 
ATOM     21  C   UNL     1      15.872  11.634  52.931  1.00  0.00     0.056 A 
ATOM     22  N   UNL     1      16.608  11.516  51.803  1.00  0.00    -0.242 NA
ATOM     23  C   UNL     1      14.503  12.268  52.986  1.00  0.00     0.068 C 
ENDBRANCH  15  18
BRANCH  16  24
ATOM     24  C   UNL     1      20.612  10.237  57.473  1.00  0.00     0.416 C 
ATOM     25  F   UNL     1      19.652  10.896  58.152  1.00  0.00    -0.166 F 
ATOM     26  F   UNL     1      20.841   9.194  58.263  1.00  0.00    -0.166 F 
ATOM     27  F   UNL     1      21.641  11.109  57.460  1.00  0.00    -0.166 F 
ENDBRANCH  16  24
ENDBRANCH  10  12
ENDBRANCH   1   8
BRANCH   6  28
ATOM     28  N   UNL     1      25.561   3.237  53.348  1.00  0.00    -0.324 N 
ATOM     29  H   UNL     1      25.256   2.845  54.250  1.00  0.00     0.170 HD
BRANCH  28  30
ATOM     30  C   UNL     1      26.791   2.868  52.800  1.00  0.00     0.227 A 
ATOM     31  N   UNL     1      27.466   3.440  51.811  1.00  0.00    -0.221 NA
ATOM     32  N   UNL     1      27.187   1.722  53.411  1.00  0.00    -0.213 NA
ATOM     33  C   UNL     1      28.620   2.849  51.445  1.00  0.00     0.117 A 
ATOM     34  C   UNL     1      28.324   1.155  52.991  1.00  0.00     0.077 A 
ATOM     35  C   UNL     1      29.056   1.708  52.001  1.00  0.00     0.049 A 
BRANCH  34  36
ATOM     36  C   UNL     1      28.732  -0.077  53.715  1.00  0.00     0.019 A 
ATOM     37  C   UNL     1      28.061  -0.507  54.871  1.00  0.00     0.013 A 
ATOM     38  C   UNL     1      29.824  -0.844  53.263  1.00  0.00     0.121 A 
ATOM     39  C   UNL     1      28.503  -1.653  55.521  1.00  0.00     0.021 A 
ATOM     40  N   UNL     1      30.259  -1.945  53.890  1.00  0.00    -0.264 NA
ATOM     41  C   UNL     1      29.583  -2.348  54.978  1.00  0.00     0.111 A 
ENDBRANCH  34  36
ENDBRANCH  28  30
ENDBRANCH   6  28
TORSDOF 7
ENDMDL
MODEL 10
REMARK VINA RESULT:   -11.036      4.566      7.982
REMARK INTER + INTRA:         -14.156
REMARK INTER:                 -13.124
REMARK INTRA:                  -1.032
REMARK CONF_INDEPENDENT:        2.088
REMARK UNBOUND:                -1.032
REMARK SMILES Cc1cn(-c2cc(NC(=O)c3ccc(C)c(Nc4nccc(-c5cccnc5)n4)c3)cc(C(F)(F)F)c2)cn1
REMARK SMILES IDX 11 1 12 2 13 3 14 4 15 5 16 6 30 7 9 8 10 9 8 10 7 12 6 13
REMARK SMILES IDX 31 14 5 15 32 16 37 17 4 18 3 19 38 20 2 21 39 22 1 23 33 24
REMARK SMILES IDX 34 25 35 26 36 27 17 28 18 30 19 31 29 32 20 33 22 34 21 35
REMARK SMILES IDX 23 36 24 37 28 38 25 39 27 40 26 41
REMARK H PARENT 8 11 17 29
ROOT
ATOM      1  C   UNL     1      33.958  -0.557  50.719  1.00  0.00     0.042 A 
ATOM      2  C   UNL     1      33.989  -1.813  50.095  1.00  0.00     0.014 A 
ATOM      3  C   UNL     1      35.008  -2.158  49.206  1.00  0.00     0.006 A 
ATOM      4  C   UNL     1      35.983  -1.244  48.841  1.00  0.00    -0.027 A 
ATOM      5  C   UNL     1      37.084  -1.631  47.864  1.00  0.00     0.046 C 
ATOM      6  C   UNL     1      35.898   0.040  49.378  1.00  0.00     0.045 A 
ATOM      7  C   UNL     1      34.882   0.358  50.288  1.00  0.00     0.040 A 
ENDROOT
BRANCH   1   8
ATOM      8  C   UNL     1      32.856  -0.065  51.570  1.00  0.00     0.255 C 
ATOM      9  O   UNL     1      32.970   1.072  51.959  1.00  0.00    -0.269 OA
ATOM     10  N   UNL     1      31.752  -0.826  51.608  1.00  0.00    -0.322 N 
ATOM     11  H   UNL     1      31.784  -1.721  51.099  1.00  0.00     0.170 HD
BRANCH  10  12
ATOM     12  C   UNL     1      30.571  -0.519  52.271  1.00  0.00     0.044 A 
ATOM     13  C   UNL     1      29.783   0.590  51.875  1.00  0.00     0.052 A 
ATOM     14  C   UNL     1      30.192  -1.231  53.430  1.00  0.00     0.039 A 
ATOM     15  C   UNL     1      28.588   0.901  52.530  1.00  0.00     0.049 A 
ATOM     16  C   UNL     1      28.964  -0.926  54.082  1.00  0.00     0.060 A 
ATOM     17  C   UNL     1      28.201   0.157  53.640  1.00  0.00     0.039 A 
BRANCH  15  18
ATOM     18  N   UNL     1      27.779   1.971  52.120  1.00  0.00    -0.306 N 
ATOM     19  C   UNL     1      26.837   2.689  52.855  1.00  0.00     0.116 A 
ATOM     20  C   UNL     1      27.679   2.472  50.883  1.00  0.00     0.204 A 
ATOM     21  C   UNL     1      26.238   3.572  52.026  1.00  0.00     0.056 A 
ATOM     22  N   UNL     1      26.802   3.443  50.804  1.00  0.00    -0.242 NA
ATOM     23  C   UNL     1      25.167   4.582  52.361  1.00  0.00     0.068 C 
ENDBRANCH  15  18
BRANCH  16  24
ATOM     24  C   UNL     1      28.558  -1.735  55.271  1.00  0.00     0.416 C 
ATOM     25  F   UNL     1      27.679  -2.724  55.014  1.00  0.00    -0.166 F 
ATOM     26  F   UNL     1      29.590  -2.408  55.766  1.00  0.00    -0.166 F 
ATOM     27  F   UNL     1      27.930  -0.993  56.206  1.00  0.00    -0.166 F 
ENDBRANCH  16  24
ENDBRANCH  10  12
ENDBRANCH   1   8
BRANCH   6  28
ATOM     28  N   UNL     1      36.958   0.928  49.154  1.00  0.00    -0.324 N 
ATOM     29  H   UNL     1      36.773   1.883  48.818  1.00  0.00     0.170 HD
BRANCH  28  30
ATOM     30  C   UNL     1      38.269   0.506  49.388  1.00  0.00     0.227 A 
ATOM     31  N   UNL     1      38.726  -0.301  50.336  1.00  0.00    -0.221 NA
ATOM     32  N   UNL     1      39.072   1.142  48.497  1.00  0.00    -0.213 NA
ATOM     33  C   UNL     1      40.056  -0.510  50.364  1.00  0.00     0.117 A 
ATOM     34  C   UNL     1      40.390   0.928  48.584  1.00  0.00     0.077 A 
ATOM     35  C   UNL     1      40.902   0.101  49.520  1.00  0.00     0.049 A 
BRANCH  34  36
ATOM     36  C   UNL     1      41.221   1.619  47.564  1.00  0.00     0.019 A 
ATOM     37  C   UNL     1      40.648   2.227  46.436  1.00  0.00     0.013 A 
ATOM     38  C   UNL     1      42.623   1.668  47.698  1.00  0.00     0.121 A 
ATOM     39  C   UNL     1      41.477   2.837  45.503  1.00  0.00     0.021 A 
ATOM     40  N   UNL     1      43.428   2.247  46.798  1.00  0.00    -0.264 NA
ATOM     41  C   UNL     1      42.850   2.843  45.742  1.00  0.00     0.111 A 
ENDBRANCH  34  36
ENDBRANCH  28  30
ENDBRANCH   6  28
TORSDOF 7
ENDMDL
MODEL 11
REMARK VINA RESULT:   -11.017      3.831     11.781
REMARK INTER + INTRA:         -14.229
REMARK INTER:                 -13.105
REMARK INTRA:                  -1.124
REMARK CONF_INDEPENDENT:        2.088
REMARK UNBOUND:                -1.124
REMARK SMILES Cc1cn(-c2cc(NC(=O)c3ccc(C)c(Nc4nccc(-c5cccnc5)n4)c3)cc(C(F)(F)F)c2)cn1
REMARK SMILES IDX 11 1 12 2 13 3 14 4 15 5 16 6 30 7 9 8 10 9 8 10 7 12 6 13
REMARK SMILES IDX 31 14 5 15 32 16 37 17 4 18 3 19 38 20 2 21 39 22 1 23 33 24
REMARK SMILES IDX 34 25 35 26 36 27 17 28 18 30 19 31 29 32 20 33 22 34 21 35
REMARK SMILES IDX 23 36 24 37 28 38 25 39 27 40 26 41
REMARK H PARENT 8 11 17 29
ROOT
ATOM      1  C   UNL     1      25.703   3.541  51.860  1.00  0.00     0.042 A 
ATOM      2  C   UNL     1      24.855   3.423  50.749  1.00  0.00     0.014 A 
ATOM      3  C   UNL     1      23.529   3.855  50.797  1.00  0.00     0.006 A 
ATOM      4  C   UNL     1      22.974   4.342  51.970  1.00  0.00    -0.027 A 
ATOM      5  C   UNL     1      21.524   4.803  52.010  1.00  0.00     0.046 C 
ATOM      6  C   UNL     1      23.782   4.365  53.106  1.00  0.00     0.045 A 
ATOM      7  C   UNL     1      25.118   3.950  53.030  1.00  0.00     0.040 A 
ENDROOT
BRANCH   1   8
ATOM      8  C   UNL     1      27.073   2.996  51.937  1.00  0.00     0.255 C 
ATOM      9  O   UNL     1      27.635   2.855  50.879  1.00  0.00    -0.269 OA
ATOM     10  N   UNL     1      27.627   2.958  53.159  1.00  0.00    -0.322 N 
ATOM     11  H   UNL     1      27.034   3.246  53.950  1.00  0.00     0.170 HD
BRANCH  10  12
ATOM     12  C   UNL     1      28.926   2.565  53.454  1.00  0.00     0.044 A 
ATOM     13  C   UNL     1      29.577   1.569  52.684  1.00  0.00     0.052 A 
ATOM     14  C   UNL     1      29.583   3.062  54.600  1.00  0.00     0.039 A 
ATOM     15  C   UNL     1      30.887   1.174  52.967  1.00  0.00     0.049 A 
ATOM     16  C   UNL     1      30.926   2.675  54.874  1.00  0.00     0.060 A 
ATOM     17  C   UNL     1      31.542   1.711  54.071  1.00  0.00     0.039 A 
BRANCH  15  18
ATOM     18  N   UNL     1      31.555   0.220  52.185  1.00  0.00    -0.306 N 
ATOM     19  C   UNL     1      32.916   0.117  51.902  1.00  0.00     0.116 A 
ATOM     20  C   UNL     1      30.996  -0.757  51.462  1.00  0.00     0.204 A 
ATOM     21  C   UNL     1      33.091  -0.907  51.038  1.00  0.00     0.056 A 
ATOM     22  N   UNL     1      31.882  -1.462  50.801  1.00  0.00    -0.242 NA
ATOM     23  C   UNL     1      34.386  -1.419  50.454  1.00  0.00     0.068 C 
ENDBRANCH  15  18
BRANCH  16  24
ATOM     24  C   UNL     1      31.619   3.262  56.060  1.00  0.00     0.416 C 
ATOM     25  F   UNL     1      31.650   2.471  57.151  1.00  0.00    -0.166 F 
ATOM     26  F   UNL     1      32.911   3.445  55.816  1.00  0.00    -0.166 F 
ATOM     27  F   UNL     1      31.014   4.384  56.504  1.00  0.00    -0.166 F 
ENDBRANCH  16  24
ENDBRANCH  10  12
ENDBRANCH   1   8
BRANCH   6  28
ATOM     28  N   UNL     1      23.297   5.001  54.256  1.00  0.00    -0.324 N 
ATOM     29  H   UNL     1      22.341   4.813  54.588  1.00  0.00     0.170 HD
BRANCH  28  30
ATOM     30  C   UNL     1      24.121   5.890  54.948  1.00  0.00     0.227 A 
ATOM     31  N   UNL     1      25.362   6.266  54.667  1.00  0.00    -0.221 NA
ATOM     32  N   UNL     1      23.456   6.283  56.065  1.00  0.00    -0.213 NA
ATOM     33  C   UNL     1      25.950   7.111  55.535  1.00  0.00     0.117 A 
ATOM     34  C   UNL     1      24.094   7.098  56.914  1.00  0.00     0.077 A 
ATOM     35  C   UNL     1      25.351   7.523  56.663  1.00  0.00     0.049 A 
BRANCH  34  36
ATOM     36  C   UNL     1      23.311   7.527  58.102  1.00  0.00     0.019 A 
ATOM     37  C   UNL     1      23.931   8.106  59.221  1.00  0.00     0.013 A 
ATOM     38  C   UNL     1      21.914   7.348  58.142  1.00  0.00     0.121 A 
ATOM     39  C   UNL     1      23.152   8.464  60.314  1.00  0.00     0.021 A 
ATOM     40  N   UNL     1      21.159   7.684  59.196  1.00  0.00    -0.264 NA
ATOM     41  C   UNL     1      21.775   8.259  60.242  1.00  0.00     0.111 A 
ENDBRANCH  34  36
ENDBRANCH  28  30
ENDBRANCH   6  28
TORSDOF 7
ENDMDL
MODEL 12
REMARK VINA RESULT:   -10.931      3.546     12.122
REMARK INTER + INTRA:         -14.320
REMARK INTER:                 -13.019
REMARK INTRA:                  -1.301
REMARK CONF_INDEPENDENT:        2.088
REMARK UNBOUND:                -1.301
REMARK SMILES Cc1cn(-c2cc(NC(=O)c3ccc(C)c(Nc4nccc(-c5cccnc5)n4)c3)cc(C(F)(F)F)c2)cn1
REMARK SMILES IDX 11 1 12 2 13 3 14 4 15 5 16 6 30 7 9 8 10 9 8 10 7 12 6 13
REMARK SMILES IDX 31 14 5 15 32 16 37 17 4 18 3 19 38 20 2 21 39 22 1 23 33 24
REMARK SMILES IDX 34 25 35 26 36 27 17 28 18 30 19 31 29 32 20 33 22 34 21 35
REMARK SMILES IDX 23 36 24 37 28 38 25 39 27 40 26 41
REMARK H PARENT 8 11 17 29
ROOT
ATOM      1  C   UNL     1      25.462   3.750  51.882  1.00  0.00     0.042 A 
ATOM      2  C   UNL     1      24.727   3.989  50.711  1.00  0.00     0.014 A 
ATOM      3  C   UNL     1      23.407   4.440  50.761  1.00  0.00     0.006 A 
ATOM      4  C   UNL     1      22.744   4.590  51.968  1.00  0.00    -0.027 A 
ATOM      5  C   UNL     1      21.302   5.075  52.006  1.00  0.00     0.046 C 
ATOM      6  C   UNL     1      23.436   4.255  53.131  1.00  0.00     0.045 A 
ATOM      7  C   UNL     1      24.768   3.828  53.061  1.00  0.00     0.040 A 
ENDROOT
BRANCH   1   8
ATOM      8  C   UNL     1      26.812   3.154  51.924  1.00  0.00     0.255 C 
ATOM      9  O   UNL     1      27.313   2.931  50.849  1.00  0.00    -0.269 OA
ATOM     10  N   UNL     1      27.426   3.162  53.117  1.00  0.00    -0.322 N 
ATOM     11  H   UNL     1      26.886   3.519  53.918  1.00  0.00     0.170 HD
BRANCH  10  12
ATOM     12  C   UNL     1      28.722   2.733  53.371  1.00  0.00     0.044 A 
ATOM     13  C   UNL     1      29.318   1.715  52.585  1.00  0.00     0.052 A 
ATOM     14  C   UNL     1      29.432   3.216  54.492  1.00  0.00     0.039 A 
ATOM     15  C   UNL     1      30.625   1.283  52.827  1.00  0.00     0.049 A 
ATOM     16  C   UNL     1      30.771   2.791  54.723  1.00  0.00     0.060 A 
ATOM     17  C   UNL     1      31.331   1.806  53.905  1.00  0.00     0.039 A 
BRANCH  15  18
ATOM     18  N   UNL     1      31.239   0.306  52.028  1.00  0.00    -0.306 N 
ATOM     19  C   UNL     1      32.589  -0.023  51.930  1.00  0.00     0.116 A 
ATOM     20  C   UNL     1      30.646  -0.466  51.110  1.00  0.00     0.204 A 
ATOM     21  C   UNL     1      32.726  -0.966  50.972  1.00  0.00     0.056 A 
ATOM     22  N   UNL     1      31.494  -1.253  50.494  1.00  0.00    -0.242 NA
ATOM     23  C   UNL     1      33.991  -1.650  50.516  1.00  0.00     0.068 C 
ENDBRANCH  15  18
BRANCH  16  24
ATOM     24  C   UNL     1      31.520   3.363  55.882  1.00  0.00     0.416 C 
ATOM     25  F   UNL     1      30.905   4.386  56.509  1.00  0.00    -0.166 F 
ATOM     26  F   UNL     1      31.639   2.473  56.860  1.00  0.00    -0.166 F 
ATOM     27  F   UNL     1      32.708   3.889  55.517  1.00  0.00    -0.166 F 
ENDBRANCH  16  24
ENDBRANCH  10  12
ENDBRANCH   1   8
BRANCH   6  28
ATOM     28  N   UNL     1      22.845   4.551  54.366  1.00  0.00    -0.324 N 
ATOM     29  H   UNL     1      22.301   3.835  54.867  1.00  0.00     0.170 HD
BRANCH  28  30
ATOM     30  C   UNL     1      23.001   5.826  54.913  1.00  0.00     0.227 A 
ATOM     31  N   UNL     1      23.850   6.233  55.849  1.00  0.00    -0.221 NA
ATOM     32  N   UNL     1      22.047   6.626  54.372  1.00  0.00    -0.213 NA
ATOM     33  C   UNL     1      23.759   7.521  56.230  1.00  0.00     0.117 A 
ATOM     34  C   UNL     1      21.975   7.890  54.806  1.00  0.00     0.077 A 
ATOM     35  C   UNL     1      22.828   8.356  55.743  1.00  0.00     0.049 A 
BRANCH  34  36
ATOM     36  C   UNL     1      20.937   8.734  54.158  1.00  0.00     0.019 A 
ATOM     37  C   UNL     1      19.576   8.393  54.207  1.00  0.00     0.013 A 
ATOM     38  C   UNL     1      21.300   9.901  53.457  1.00  0.00     0.121 A 
ATOM     39  C   UNL     1      18.653   9.206  53.561  1.00  0.00     0.021 A 
ATOM     40  N   UNL     1      20.415  10.684  52.825  1.00  0.00    -0.264 NA
ATOM     41  C   UNL     1      19.118  10.348  52.910  1.00  0.00     0.111 A 
ENDBRANCH  34  36
ENDBRANCH  28  30
ENDBRANCH   6  28
TORSDOF 7
ENDMDL
MODEL 13
REMARK VINA RESULT:   -10.900      8.408     15.212
REMARK INTER + INTRA:         -14.294
REMARK INTER:                 -12.988
REMARK INTRA:                  -1.306
REMARK CONF_INDEPENDENT:        2.088
REMARK UNBOUND:                -1.306
REMARK SMILES Cc1cn(-c2cc(NC(=O)c3ccc(C)c(Nc4nccc(-c5cccnc5)n4)c3)cc(C(F)(F)F)c2)cn1
REMARK SMILES IDX 11 1 12 2 13 3 14 4 15 5 16 6 30 7 9 8 10 9 8 10 7 12 6 13
REMARK SMILES IDX 31 14 5 15 32 16 37 17 4 18 3 19 38 20 2 21 39 22 1 23 33 24
REMARK SMILES IDX 34 25 35 26 36 27 17 28 18 30 19 31 29 32 20 33 22 34 21 35
REMARK SMILES IDX 23 36 24 37 28 38 25 39 27 40 26 41
REMARK H PARENT 8 11 17 29
ROOT
ATOM      1  C   UNL     1      35.999  -1.645  49.253  1.00  0.00     0.042 A 
ATOM      2  C   UNL     1      35.225  -2.810  49.148  1.00  0.00     0.014 A 
ATOM      3  C   UNL     1      33.853  -2.796  49.403  1.00  0.00     0.006 A 
ATOM      4  C   UNL     1      33.217  -1.650  49.852  1.00  0.00    -0.027 A 
ATOM      5  C   UNL     1      31.721  -1.651  50.134  1.00  0.00     0.046 C 
ATOM      6  C   UNL     1      34.000  -0.515  50.058  1.00  0.00     0.045 A 
ATOM      7  C   UNL     1      35.371  -0.542  49.771  1.00  0.00     0.040 A 
ENDROOT
BRANCH   1   8
ATOM      8  C   UNL     1      37.469  -1.595  49.125  1.00  0.00     0.255 C 
ATOM      9  O   UNL     1      38.055  -1.123  50.069  1.00  0.00    -0.269 OA
ATOM     10  N   UNL     1      37.999  -2.294  48.110  1.00  0.00    -0.322 N 
ATOM     11  H   UNL     1      37.341  -2.752  47.464  1.00  0.00     0.170 HD
BRANCH  10  12
ATOM     12  C   UNL     1      39.354  -2.455  47.851  1.00  0.00     0.044 A 
ATOM     13  C   UNL     1      39.915  -2.028  46.621  1.00  0.00     0.052 A 
ATOM     14  C   UNL     1      40.180  -3.157  48.756  1.00  0.00     0.039 A 
ATOM     15  C   UNL     1      41.279  -2.177  46.355  1.00  0.00     0.049 A 
ATOM     16  C   UNL     1      41.573  -3.288  48.492  1.00  0.00     0.060 A 
ATOM     17  C   UNL     1      42.090  -2.825  47.280  1.00  0.00     0.039 A 
BRANCH  15  18
ATOM     18  N   UNL     1      41.851  -1.720  45.159  1.00  0.00    -0.306 N 
ATOM     19  C   UNL     1      42.150  -0.414  44.774  1.00  0.00     0.116 A 
ATOM     20  C   UNL     1      42.150  -2.455  44.081  1.00  0.00     0.204 A 
ATOM     21  C   UNL     1      42.610  -0.443  43.504  1.00  0.00     0.056 A 
ATOM     22  N   UNL     1      42.633  -1.732  43.100  1.00  0.00    -0.242 NA
ATOM     23  C   UNL     1      43.079   0.717  42.660  1.00  0.00     0.068 C 
ENDBRANCH  15  18
BRANCH  16  24
ATOM     24  C   UNL     1      42.435  -3.983  49.496  1.00  0.00     0.416 C 
ATOM     25  F   UNL     1      42.828  -3.220  50.535  1.00  0.00    -0.166 F 
ATOM     26  F   UNL     1      41.767  -4.955  50.106  1.00  0.00    -0.166 F 
ATOM     27  F   UNL     1      43.598  -4.412  48.964  1.00  0.00    -0.166 F 
ENDBRANCH  16  24
ENDBRANCH  10  12
ENDBRANCH   1   8
BRANCH   6  28
ATOM     28  N   UNL     1      33.357   0.694  50.352  1.00  0.00    -0.324 N 
ATOM     29  H   UNL     1      33.016   1.300  49.593  1.00  0.00     0.170 HD
BRANCH  28  30
ATOM     30  C   UNL     1      33.182   1.072  51.685  1.00  0.00     0.227 A 
ATOM     31  N   UNL     1      33.882   1.941  52.403  1.00  0.00    -0.221 NA
ATOM     32  N   UNL     1      32.176   0.317  52.198  1.00  0.00    -0.213 NA
ATOM     33  C   UNL     1      33.525   2.087  53.693  1.00  0.00     0.117 A 
ATOM     34  C   UNL     1      31.879   0.475  53.493  1.00  0.00     0.077 A 
ATOM     35  C   UNL     1      32.550   1.360  54.261  1.00  0.00     0.049 A 
BRANCH  34  36
ATOM     36  C   UNL     1      30.748  -0.348  53.997  1.00  0.00     0.019 A 
ATOM     37  C   UNL     1      29.669   0.229  54.685  1.00  0.00     0.013 A 
ATOM     38  C   UNL     1      30.739  -1.743  53.809  1.00  0.00     0.121 A 
ATOM     39  C   UNL     1      28.652  -0.592  55.156  1.00  0.00     0.021 A 
ATOM     40  N   UNL     1      29.766  -2.541  54.267  1.00  0.00    -0.264 NA
ATOM     41  C   UNL     1      28.733  -1.960  54.899  1.00  0.00     0.111 A 
ENDBRANCH  34  36
ENDBRANCH  28  30
ENDBRANCH   6  28
TORSDOF 7
ENDMDL
MODEL 14
REMARK VINA RESULT:   -10.862      3.741     12.030
REMARK INTER + INTRA:         -14.212
REMARK INTER:                 -12.950
REMARK INTRA:                  -1.262
REMARK CONF_INDEPENDENT:        2.088
REMARK UNBOUND:                -1.262
REMARK SMILES Cc1cn(-c2cc(NC(=O)c3ccc(C)c(Nc4nccc(-c5cccnc5)n4)c3)cc(C(F)(F)F)c2)cn1
REMARK SMILES IDX 11 1 12 2 13 3 14 4 15 5 16 6 30 7 9 8 10 9 8 10 7 12 6 13
REMARK SMILES IDX 31 14 5 15 32 16 37 17 4 18 3 19 38 20 2 21 39 22 1 23 33 24
REMARK SMILES IDX 34 25 35 26 36 27 17 28 18 30 19 31 29 32 20 33 22 34 21 35
REMARK SMILES IDX 23 36 24 37 28 38 25 39 27 40 26 41
REMARK H PARENT 8 11 17 29
ROOT
ATOM      1  C   UNL     1      25.952   3.843  51.941  1.00  0.00     0.042 A 
ATOM      2  C   UNL     1      25.279   4.246  50.777  1.00  0.00     0.014 A 
ATOM      3  C   UNL     1      24.170   5.091  50.835  1.00  0.00     0.006 A 
ATOM      4  C   UNL     1      23.638   5.497  52.048  1.00  0.00    -0.027 A 
ATOM      5  C   UNL     1      22.423   6.412  52.096  1.00  0.00     0.046 C 
ATOM      6  C   UNL     1      24.239   5.016  53.210  1.00  0.00     0.045 A 
ATOM      7  C   UNL     1      25.367   4.189  53.131  1.00  0.00     0.040 A 
ENDROOT
BRANCH   1   8
ATOM      8  C   UNL     1      27.049   2.856  51.982  1.00  0.00     0.255 C 
ATOM      9  O   UNL     1      27.742   2.811  50.995  1.00  0.00    -0.269 OA
ATOM     10  N   UNL     1      27.308   2.309  53.179  1.00  0.00    -0.322 N 
ATOM     11  H   UNL     1      26.684   2.568  53.956  1.00  0.00     0.170 HD
BRANCH  10  12
ATOM     12  C   UNL     1      28.341   1.426  53.466  1.00  0.00     0.044 A 
ATOM     13  C   UNL     1      29.653   1.659  52.982  1.00  0.00     0.052 A 
ATOM     14  C   UNL     1      28.083   0.215  54.145  1.00  0.00     0.039 A 
ATOM     15  C   UNL     1      30.701   0.781  53.274  1.00  0.00     0.049 A 
ATOM     16  C   UNL     1      29.156  -0.666  54.460  1.00  0.00     0.060 A 
ATOM     17  C   UNL     1      30.440  -0.383  53.989  1.00  0.00     0.039 A 
BRANCH  15  18
ATOM     18  N   UNL     1      32.011   1.024  52.834  1.00  0.00    -0.306 N 
ATOM     19  C   UNL     1      32.662   0.529  51.706  1.00  0.00     0.116 A 
ATOM     20  C   UNL     1      32.953   1.726  53.474  1.00  0.00     0.204 A 
ATOM     21  C   UNL     1      33.941   0.962  51.733  1.00  0.00     0.056 A 
ATOM     22  N   UNL     1      34.094   1.737  52.830  1.00  0.00    -0.242 NA
ATOM     23  C   UNL     1      35.030   0.706  50.720  1.00  0.00     0.068 C 
ENDBRANCH  15  18
BRANCH  16  24
ATOM     24  C   UNL     1      28.863  -1.912  55.232  1.00  0.00     0.416 C 
ATOM     25  F   UNL     1      28.004  -2.762  54.637  1.00  0.00    -0.166 F 
ATOM     26  F   UNL     1      29.951  -2.663  55.357  1.00  0.00    -0.166 F 
ATOM     27  F   UNL     1      28.277  -1.654  56.419  1.00  0.00    -0.166 F 
ENDBRANCH  16  24
ENDBRANCH  10  12
ENDBRANCH   1   8
BRANCH   6  28
ATOM     28  N   UNL     1      23.824   5.539  54.441  1.00  0.00    -0.324 N 
ATOM     29  H   UNL     1      23.052   5.097  54.960  1.00  0.00     0.170 HD
BRANCH  28  30
ATOM     30  C   UNL     1      24.465   6.666  54.960  1.00  0.00     0.227 A 
ATOM     31  N   UNL     1      25.720   6.794  55.372  1.00  0.00    -0.221 NA
ATOM     32  N   UNL     1      23.541   7.656  55.059  1.00  0.00    -0.213 NA
ATOM     33  C   UNL     1      26.072   7.993  55.875  1.00  0.00     0.117 A 
ATOM     34  C   UNL     1      23.930   8.819  55.595  1.00  0.00     0.077 A 
ATOM     35  C   UNL     1      25.201   9.004  56.013  1.00  0.00     0.049 A 
BRANCH  34  36
ATOM     36  C   UNL     1      22.892   9.881  55.649  1.00  0.00     0.019 A 
ATOM     37  C   UNL     1      21.936   9.923  56.677  1.00  0.00     0.013 A 
ATOM     38  C   UNL     1      22.830  10.873  54.651  1.00  0.00     0.121 A 
ATOM     39  C   UNL     1      20.974  10.925  56.663  1.00  0.00     0.021 A 
ATOM     40  N   UNL     1      21.900  11.836  54.628  1.00  0.00    -0.264 NA
ATOM     41  C   UNL     1      21.014  11.868  55.637  1.00  0.00     0.111 A 
ENDBRANCH  34  36
ENDBRANCH  28  30
ENDBRANCH   6  28
TORSDOF 7
ENDMDL
MODEL 15
REMARK VINA RESULT:   -10.811      4.734     13.561
REMARK INTER + INTRA:         -14.220
REMARK INTER:                 -12.899
REMARK INTRA:                  -1.322
REMARK CONF_INDEPENDENT:        2.088
REMARK UNBOUND:                -1.322
REMARK SMILES Cc1cn(-c2cc(NC(=O)c3ccc(C)c(Nc4nccc(-c5cccnc5)n4)c3)cc(C(F)(F)F)c2)cn1
REMARK SMILES IDX 11 1 12 2 13 3 14 4 15 5 16 6 30 7 9 8 10 9 8 10 7 12 6 13
REMARK SMILES IDX 31 14 5 15 32 16 37 17 4 18 3 19 38 20 2 21 39 22 1 23 33 24
REMARK SMILES IDX 34 25 35 26 36 27 17 28 18 30 19 31 29 32 20 33 22 34 21 35
REMARK SMILES IDX 23 36 24 37 28 38 25 39 27 40 26 41
REMARK H PARENT 8 11 17 29
ROOT
ATOM      1  C   UNL     1      21.097   7.305  54.296  1.00  0.00     0.042 A 
ATOM      2  C   UNL     1      20.997   7.490  55.683  1.00  0.00     0.014 A 
ATOM      3  C   UNL     1      20.275   8.556  56.223  1.00  0.00     0.006 A 
ATOM      4  C   UNL     1      19.699   9.519  55.410  1.00  0.00    -0.027 A 
ATOM      5  C   UNL     1      18.921  10.679  56.014  1.00  0.00     0.046 C 
ATOM      6  C   UNL     1      19.883   9.397  54.034  1.00  0.00     0.045 A 
ATOM      7  C   UNL     1      20.590   8.307  53.510  1.00  0.00     0.040 A 
ENDROOT
BRANCH   1   8
ATOM      8  C   UNL     1      21.940   6.285  53.640  1.00  0.00     0.255 C 
ATOM      9  O   UNL     1      21.894   5.183  54.128  1.00  0.00    -0.269 OA
ATOM     10  N   UNL     1      22.457   6.622  52.448  1.00  0.00    -0.322 N 
ATOM     11  H   UNL     1      22.282   7.581  52.117  1.00  0.00     0.170 HD
BRANCH  10  12
ATOM     12  C   UNL     1      23.206   5.795  51.621  1.00  0.00     0.044 A 
ATOM     13  C   UNL     1      24.295   5.047  52.133  1.00  0.00     0.052 A 
ATOM     14  C   UNL     1      22.975   5.775  50.228  1.00  0.00     0.039 A 
ATOM     15  C   UNL     1      25.048   4.205  51.311  1.00  0.00     0.049 A 
ATOM     16  C   UNL     1      23.729   4.899  49.395  1.00  0.00     0.060 A 
ATOM     17  C   UNL     1      24.775   4.156  49.947  1.00  0.00     0.039 A 
BRANCH  15  18
ATOM     18  N   UNL     1      26.101   3.429  51.816  1.00  0.00    -0.306 N 
ATOM     19  C   UNL     1      26.434   3.161  53.143  1.00  0.00     0.116 A 
ATOM     20  C   UNL     1      27.079   2.847  51.111  1.00  0.00     0.204 A 
ATOM     21  C   UNL     1      27.575   2.439  53.155  1.00  0.00     0.056 A 
ATOM     22  N   UNL     1      27.945   2.225  51.873  1.00  0.00    -0.242 NA
ATOM     23  C   UNL     1      28.318   1.895  54.352  1.00  0.00     0.068 C 
ENDBRANCH  15  18
BRANCH  16  24
ATOM     24  C   UNL     1      23.424   4.853  47.933  1.00  0.00     0.416 C 
ATOM     25  F   UNL     1      24.216   5.623  47.161  1.00  0.00    -0.166 F 
ATOM     26  F   UNL     1      23.649   3.642  47.437  1.00  0.00    -0.166 F 
ATOM     27  F   UNL     1      22.182   5.302  47.654  1.00  0.00    -0.166 F 
ENDBRANCH  16  24
ENDBRANCH  10  12
ENDBRANCH   1   8
BRANCH   6  28
ATOM     28  N   UNL     1      19.177  10.262  53.188  1.00  0.00    -0.324 N 
ATOM     29  H   UNL     1      19.679  10.827  52.488  1.00  0.00     0.170 HD
BRANCH  28  30
ATOM     30  C   UNL     1      17.789  10.351  53.301  1.00  0.00     0.227 A 
ATOM     31  N   UNL     1      17.026  11.436  53.359  1.00  0.00    -0.221 NA
ATOM     32  N   UNL     1      17.303   9.089  53.427  1.00  0.00    -0.213 NA
ATOM     33  C   UNL     1      15.703  11.239  53.514  1.00  0.00     0.117 A 
ATOM     34  C   UNL     1      15.986   8.945  53.611  1.00  0.00     0.077 A 
ATOM     35  C   UNL     1      15.166  10.017  53.660  1.00  0.00     0.049 A 
BRANCH  34  36
ATOM     36  C   UNL     1      15.501   7.544  53.709  1.00  0.00     0.019 A 
ATOM     37  C   UNL     1      14.649   7.131  54.746  1.00  0.00     0.013 A 
ATOM     38  C   UNL     1      15.900   6.581  52.761  1.00  0.00     0.121 A 
ATOM     39  C   UNL     1      14.247   5.802  54.800  1.00  0.00     0.021 A 
ATOM     40  N   UNL     1      15.523   5.297  52.813  1.00  0.00    -0.264 NA
ATOM     41  C   UNL     1      14.688   4.935  53.801  1.00  0.00     0.111 A 
ENDBRANCH  34  36
ENDBRANCH  28  30
ENDBRANCH   6  28
TORSDOF 7
ENDMDL
MODEL 16
REMARK VINA RESULT:   -10.792      4.163     11.162
REMARK INTER + INTRA:         -14.142
REMARK INTER:                 -12.880
REMARK INTRA:                  -1.262
REMARK CONF_INDEPENDENT:        2.088
REMARK UNBOUND:                -1.262
REMARK SMILES Cc1cn(-c2cc(NC(=O)c3ccc(C)c(Nc4nccc(-c5cccnc5)n4)c3)cc(C(F)(F)F)c2)cn1
REMARK SMILES IDX 11 1 12 2 13 3 14 4 15 5 16 6 30 7 9 8 10 9 8 10 7 12 6 13
REMARK SMILES IDX 31 14 5 15 32 16 37 17 4 18 3 19 38 20 2 21 39 22 1 23 33 24
REMARK SMILES IDX 34 25 35 26 36 27 17 28 18 30 19 31 29 32 20 33 22 34 21 35
REMARK SMILES IDX 23 36 24 37 28 38 25 39 27 40 26 41
REMARK H PARENT 8 11 17 29
ROOT
ATOM      1  C   UNL     1      25.668   3.729  51.936  1.00  0.00     0.042 A 
ATOM      2  C   UNL     1      24.904   3.834  50.765  1.00  0.00     0.014 A 
ATOM      3  C   UNL     1      23.590   4.305  50.794  1.00  0.00     0.006 A 
ATOM      4  C   UNL     1      22.962   4.608  51.991  1.00  0.00    -0.027 A 
ATOM      5  C   UNL     1      21.526   5.113  52.009  1.00  0.00     0.046 C 
ATOM      6  C   UNL     1      23.682   4.406  53.168  1.00  0.00     0.045 A 
ATOM      7  C   UNL     1      25.007   3.957  53.115  1.00  0.00     0.040 A 
ENDROOT
BRANCH   1   8
ATOM      8  C   UNL     1      27.013   3.125  52.014  1.00  0.00     0.255 C 
ATOM      9  O   UNL     1      27.520   2.850  50.954  1.00  0.00    -0.269 OA
ATOM     10  N   UNL     1      27.618   3.180  53.210  1.00  0.00    -0.322 N 
ATOM     11  H   UNL     1      27.075   3.576  53.991  1.00  0.00     0.170 HD
BRANCH  10  12
ATOM     12  C   UNL     1      28.909   2.752  53.492  1.00  0.00     0.044 A 
ATOM     13  C   UNL     1      29.529   1.747  52.710  1.00  0.00     0.052 A 
ATOM     14  C   UNL     1      29.588   3.223  54.637  1.00  0.00     0.039 A 
ATOM     15  C   UNL     1      30.831   1.317  52.979  1.00  0.00     0.049 A 
ATOM     16  C   UNL     1      30.922   2.800  54.897  1.00  0.00     0.060 A 
ATOM     17  C   UNL     1      31.507   1.829  54.082  1.00  0.00     0.039 A 
BRANCH  15  18
ATOM     18  N   UNL     1      31.469   0.352  52.185  1.00  0.00    -0.306 N 
ATOM     19  C   UNL     1      31.048  -0.209  50.981  1.00  0.00     0.116 A 
ATOM     20  C   UNL     1      32.596  -0.308  52.476  1.00  0.00     0.204 A 
ATOM     21  C   UNL     1      31.940  -1.158  50.622  1.00  0.00     0.056 A 
ATOM     22  N   UNL     1      32.918  -1.182  51.554  1.00  0.00    -0.242 NA
ATOM     23  C   UNL     1      31.926  -2.026  49.387  1.00  0.00     0.068 C 
ENDBRANCH  15  18
BRANCH  16  24
ATOM     24  C   UNL     1      31.639   3.361  56.083  1.00  0.00     0.416 C 
ATOM     25  F   UNL     1      31.051   4.433  56.650  1.00  0.00    -0.166 F 
ATOM     26  F   UNL     1      31.651   2.492  57.087  1.00  0.00    -0.166 F 
ATOM     27  F   UNL     1      32.873   3.807  55.773  1.00  0.00    -0.166 F 
ENDBRANCH  16  24
ENDBRANCH  10  12
ENDBRANCH   1   8
BRANCH   6  28
ATOM     28  N   UNL     1      23.129   4.857  54.373  1.00  0.00    -0.324 N 
ATOM     29  H   UNL     1      22.471   4.262  54.897  1.00  0.00     0.170 HD
BRANCH  28  30
ATOM     30  C   UNL     1      23.477   6.118  54.860  1.00  0.00     0.227 A 
ATOM     31  N   UNL     1      23.281   7.308  54.305  1.00  0.00    -0.221 NA
ATOM     32  N   UNL     1      24.157   5.939  56.021  1.00  0.00    -0.213 NA
ATOM     33  C   UNL     1      23.761   8.374  54.973  1.00  0.00     0.117 A 
ATOM     34  C   UNL     1      24.642   7.026  56.632  1.00  0.00     0.077 A 
ATOM     35  C   UNL     1      24.454   8.259  56.117  1.00  0.00     0.049 A 
BRANCH  34  36
ATOM     36  C   UNL     1      25.348   6.779  57.917  1.00  0.00     0.019 A 
ATOM     37  C   UNL     1      24.644   6.548  59.110  1.00  0.00     0.013 A 
ATOM     38  C   UNL     1      26.755   6.787  57.973  1.00  0.00     0.121 A 
ATOM     39  C   UNL     1      25.356   6.348  60.286  1.00  0.00     0.021 A 
ATOM     40  N   UNL     1      27.447   6.603  59.105  1.00  0.00    -0.264 NA
ATOM     41  C   UNL     1      26.749   6.359  60.226  1.00  0.00     0.111 A 
ENDBRANCH  34  36
ENDBRANCH  28  30
ENDBRANCH   6  28
TORSDOF 7
ENDMDL
MODEL 17
REMARK VINA RESULT:   -10.551      8.247     14.983
REMARK INTER + INTRA:         -13.994
REMARK INTER:                 -12.639
REMARK INTRA:                  -1.355
REMARK CONF_INDEPENDENT:        2.088
REMARK UNBOUND:                -1.355
REMARK SMILES Cc1cn(-c2cc(NC(=O)c3ccc(C)c(Nc4nccc(-c5cccnc5)n4)c3)cc(C(F)(F)F)c2)cn1
REMARK SMILES IDX 11 1 12 2 13 3 14 4 15 5 16 6 30 7 9 8 10 9 8 10 7 12 6 13
REMARK SMILES IDX 31 14 5 15 32 16 37 17 4 18 3 19 38 20 2 21 39 22 1 23 33 24
REMARK SMILES IDX 34 25 35 26 36 27 17 28 18 30 19 31 29 32 20 33 22 34 21 35
REMARK SMILES IDX 23 36 24 37 28 38 25 39 27 40 26 41
REMARK H PARENT 8 11 17 29
ROOT
ATOM      1  C   UNL     1      36.300  -1.540  49.494  1.00  0.00     0.042 A 
ATOM      2  C   UNL     1      35.620  -2.747  49.275  1.00  0.00     0.014 A 
ATOM      3  C   UNL     1      34.231  -2.829  49.386  1.00  0.00     0.006 A 
ATOM      4  C   UNL     1      33.478  -1.742  49.797  1.00  0.00    -0.027 A 
ATOM      5  C   UNL     1      31.964  -1.848  49.921  1.00  0.00     0.046 C 
ATOM      6  C   UNL     1      34.158  -0.568  50.116  1.00  0.00     0.045 A 
ATOM      7  C   UNL     1      35.550  -0.499  49.974  1.00  0.00     0.040 A 
ENDROOT
BRANCH   1   8
ATOM      8  C   UNL     1      37.769  -1.393  49.523  1.00  0.00     0.255 C 
ATOM      9  O   UNL     1      38.184  -0.462  50.169  1.00  0.00    -0.269 OA
ATOM     10  N   UNL     1      38.477  -2.430  49.052  1.00  0.00    -0.322 N 
ATOM     11  H   UNL     1      37.945  -3.214  48.648  1.00  0.00     0.170 HD
BRANCH  10  12
ATOM     12  C   UNL     1      39.862  -2.543  49.058  1.00  0.00     0.044 A 
ATOM     13  C   UNL     1      40.586  -2.536  50.276  1.00  0.00     0.052 A 
ATOM     14  C   UNL     1      40.587  -2.546  47.847  1.00  0.00     0.039 A 
ATOM     15  C   UNL     1      41.978  -2.659  50.293  1.00  0.00     0.049 A 
ATOM     16  C   UNL     1      42.004  -2.694  47.867  1.00  0.00     0.060 A 
ATOM     17  C   UNL     1      42.676  -2.713  49.091  1.00  0.00     0.039 A 
BRANCH  15  18
ATOM     18  N   UNL     1      42.701  -2.695  51.495  1.00  0.00    -0.306 N 
ATOM     19  C   UNL     1      42.744  -3.699  52.461  1.00  0.00     0.116 A 
ATOM     20  C   UNL     1      43.442  -1.709  52.014  1.00  0.00     0.204 A 
ATOM     21  C   UNL     1      43.505  -3.263  53.489  1.00  0.00     0.056 A 
ATOM     22  N   UNL     1      43.959  -2.029  53.176  1.00  0.00    -0.242 NA
ATOM     23  C   UNL     1      43.862  -3.999  54.758  1.00  0.00     0.068 C 
ENDBRANCH  15  18
BRANCH  16  24
ATOM     24  C   UNL     1      42.741  -2.755  46.569  1.00  0.00     0.416 C 
ATOM     25  F   UNL     1      43.128  -3.990  46.191  1.00  0.00    -0.166 F 
ATOM     26  F   UNL     1      41.959  -2.391  45.559  1.00  0.00    -0.166 F 
ATOM     27  F   UNL     1      43.897  -2.060  46.602  1.00  0.00    -0.166 F 
ENDBRANCH  16  24
ENDBRANCH  10  12
ENDBRANCH   1   8
BRANCH   6  28
ATOM     28  N   UNL     1      33.410   0.587  50.376  1.00  0.00    -0.324 N 
ATOM     29  H   UNL     1      33.007   1.131  49.599  1.00  0.00     0.170 HD
BRANCH  28  30
ATOM     30  C   UNL     1      33.213   0.996  51.697  1.00  0.00     0.227 A 
ATOM     31  N   UNL     1      33.902   1.881  52.405  1.00  0.00    -0.221 NA
ATOM     32  N   UNL     1      32.198   0.254  52.211  1.00  0.00    -0.213 NA
ATOM     33  C   UNL     1      33.524   2.058  53.686  1.00  0.00     0.117 A 
ATOM     34  C   UNL     1      31.881   0.441  53.497  1.00  0.00     0.077 A 
ATOM     35  C   UNL     1      32.540   1.344  54.254  1.00  0.00     0.049 A 
BRANCH  34  36
ATOM     36  C   UNL     1      30.741  -0.369  54.001  1.00  0.00     0.019 A 
ATOM     37  C   UNL     1      29.647   0.226  54.650  1.00  0.00     0.013 A 
ATOM     38  C   UNL     1      30.739  -1.769  53.854  1.00  0.00     0.121 A 
ATOM     39  C   UNL     1      28.622  -0.584  55.123  1.00  0.00     0.021 A 
ATOM     40  N   UNL     1      29.757  -2.556  54.315  1.00  0.00    -0.264 NA
ATOM     41  C   UNL     1      28.711  -1.959  54.908  1.00  0.00     0.111 A 
ENDBRANCH  34  36
ENDBRANCH  28  30
ENDBRANCH   6  28
TORSDOF 7
ENDMDL
MODEL 18
REMARK VINA RESULT:   -10.514      5.775     10.924
REMARK INTER + INTRA:         -13.741
REMARK INTER:                 -12.602
REMARK INTRA:                  -1.139
REMARK CONF_INDEPENDENT:        2.088
REMARK UNBOUND:                -1.139
REMARK SMILES Cc1cn(-c2cc(NC(=O)c3ccc(C)c(Nc4nccc(-c5cccnc5)n4)c3)cc(C(F)(F)F)c2)cn1
REMARK SMILES IDX 11 1 12 2 13 3 14 4 15 5 16 6 30 7 9 8 10 9 8 10 7 12 6 13
REMARK SMILES IDX 31 14 5 15 32 16 37 17 4 18 3 19 38 20 2 21 39 22 1 23 33 24
REMARK SMILES IDX 34 25 35 26 36 27 17 28 18 30 19 31 29 32 20 33 22 34 21 35
REMARK SMILES IDX 23 36 24 37 28 38 25 39 27 40 26 41
REMARK H PARENT 8 11 17 29
ROOT
ATOM      1  C   UNL     1      22.417   6.422  55.316  1.00  0.00     0.042 A 
ATOM      2  C   UNL     1      21.699   7.545  54.877  1.00  0.00     0.014 A 
ATOM      3  C   UNL     1      21.203   8.488  55.778  1.00  0.00     0.006 A 
ATOM      4  C   UNL     1      21.328   8.310  57.146  1.00  0.00    -0.027 A 
ATOM      5  C   UNL     1      20.776   9.344  58.117  1.00  0.00     0.046 C 
ATOM      6  C   UNL     1      21.950   7.144  57.592  1.00  0.00     0.045 A 
ATOM      7  C   UNL     1      22.463   6.222  56.671  1.00  0.00     0.040 A 
ENDROOT
BRANCH   1   8
ATOM      8  C   UNL     1      22.865   5.315  54.448  1.00  0.00     0.255 C 
ATOM      9  O   UNL     1      22.051   4.445  54.256  1.00  0.00    -0.269 OA
ATOM     10  N   UNL     1      24.008   5.516  53.776  1.00  0.00    -0.322 N 
ATOM     11  H   UNL     1      24.516   6.391  53.967  1.00  0.00     0.170 HD
BRANCH  10  12
ATOM     12  C   UNL     1      24.571   4.650  52.846  1.00  0.00     0.044 A 
ATOM     13  C   UNL     1      23.822   4.191  51.734  1.00  0.00     0.052 A 
ATOM     14  C   UNL     1      25.861   4.114  53.053  1.00  0.00     0.039 A 
ATOM     15  C   UNL     1      24.383   3.328  50.788  1.00  0.00     0.049 A 
ATOM     16  C   UNL     1      26.438   3.253  52.076  1.00  0.00     0.060 A 
ATOM     17  C   UNL     1      25.675   2.849  50.979  1.00  0.00     0.039 A 
BRANCH  15  18
ATOM     18  N   UNL     1      23.664   2.900  49.662  1.00  0.00    -0.306 N 
ATOM     19  C   UNL     1      22.852   1.777  49.516  1.00  0.00     0.116 A 
ATOM     20  C   UNL     1      23.685   3.450  48.442  1.00  0.00     0.204 A 
ATOM     21  C   UNL     1      22.435   1.722  48.232  1.00  0.00     0.056 A 
ATOM     22  N   UNL     1      22.940   2.795  47.585  1.00  0.00    -0.242 NA
ATOM     23  C   UNL     1      21.524   0.701  47.594  1.00  0.00     0.068 C 
ENDBRANCH  15  18
BRANCH  16  24
ATOM     24  C   UNL     1      27.828   2.748  52.291  1.00  0.00     0.416 C 
ATOM     25  F   UNL     1      28.426   3.188  53.416  1.00  0.00    -0.166 F 
ATOM     26  F   UNL     1      27.835   1.433  52.472  1.00  0.00    -0.166 F 
ATOM     27  F   UNL     1      28.672   3.139  51.314  1.00  0.00    -0.166 F 
ENDBRANCH  16  24
ENDBRANCH  10  12
ENDBRANCH   1   8
BRANCH   6  28
ATOM     28  N   UNL     1      22.232   7.020  58.958  1.00  0.00    -0.324 N 
ATOM     29  H   UNL     1      21.707   6.350  59.538  1.00  0.00     0.170 HD
BRANCH  28  30
ATOM     30  C   UNL     1      23.231   7.812  59.528  1.00  0.00     0.227 A 
ATOM     31  N   UNL     1      23.342   9.134  59.536  1.00  0.00    -0.221 NA
ATOM     32  N   UNL     1      24.174   6.980  60.041  1.00  0.00    -0.213 NA
ATOM     33  C   UNL     1      24.439   9.646  60.124  1.00  0.00     0.117 A 
ATOM     34  C   UNL     1      25.262   7.535  60.587  1.00  0.00     0.077 A 
ATOM     35  C   UNL     1      25.412   8.876  60.635  1.00  0.00     0.049 A 
BRANCH  34  36
ATOM     36  C   UNL     1      26.247   6.583  61.165  1.00  0.00     0.019 A 
ATOM     37  C   UNL     1      26.029   5.962  62.405  1.00  0.00     0.013 A 
ATOM     38  C   UNL     1      27.443   6.289  60.482  1.00  0.00     0.121 A 
ATOM     39  C   UNL     1      26.996   5.101  62.908  1.00  0.00     0.021 A 
ATOM     40  N   UNL     1      28.383   5.466  60.965  1.00  0.00    -0.264 NA
ATOM     41  C   UNL     1      28.137   4.867  62.141  1.00  0.00     0.111 A 
ENDBRANCH  34  36
ENDBRANCH  28  30
ENDBRANCH   6  28
TORSDOF 7
ENDMDL
MODEL 19
REMARK VINA RESULT:   -10.453      3.572     12.437
REMARK INTER + INTRA:         -13.735
REMARK INTER:                 -12.542
REMARK INTRA:                  -1.193
REMARK CONF_INDEPENDENT:        2.088
REMARK UNBOUND:                -1.193
REMARK SMILES Cc1cn(-c2cc(NC(=O)c3ccc(C)c(Nc4nccc(-c5cccnc5)n4)c3)cc(C(F)(F)F)c2)cn1
REMARK SMILES IDX 11 1 12 2 13 3 14 4 15 5 16 6 30 7 9 8 10 9 8 10 7 12 6 13
REMARK SMILES IDX 31 14 5 15 32 16 37 17 4 18 3 19 38 20 2 21 39 22 1 23 33 24
REMARK SMILES IDX 34 25 35 26 36 27 17 28 18 30 19 31 29 32 20 33 22 34 21 35
REMARK SMILES IDX 23 36 24 37 28 38 25 39 27 40 26 41
REMARK H PARENT 8 11 17 29
ROOT
ATOM      1  C   UNL     1      26.408   2.918  51.879  1.00  0.00     0.042 A 
ATOM      2  C   UNL     1      26.320   3.224  50.513  1.00  0.00     0.014 A 
ATOM      3  C   UNL     1      25.252   3.962  50.001  1.00  0.00     0.006 A 
ATOM      4  C   UNL     1      24.195   4.350  50.808  1.00  0.00    -0.027 A 
ATOM      5  C   UNL     1      23.033   5.149  50.234  1.00  0.00     0.046 C 
ATOM      6  C   UNL     1      24.225   3.960  52.145  1.00  0.00     0.045 A 
ATOM      7  C   UNL     1      25.318   3.240  52.646  1.00  0.00     0.040 A 
ENDROOT
BRANCH   1   8
ATOM      8  C   UNL     1      27.429   2.039  52.483  1.00  0.00     0.255 C 
ATOM      9  O   UNL     1      27.211   1.695  53.619  1.00  0.00    -0.269 OA
ATOM     10  N   UNL     1      28.337   1.523  51.641  1.00  0.00    -0.322 N 
ATOM     11  H   UNL     1      28.293   1.830  50.659  1.00  0.00     0.170 HD
BRANCH  10  12
ATOM     12  C   UNL     1      29.333   0.612  51.973  1.00  0.00     0.044 A 
ATOM     13  C   UNL     1      30.278   0.184  51.009  1.00  0.00     0.052 A 
ATOM     14  C   UNL     1      29.351   0.001  53.246  1.00  0.00     0.039 A 
ATOM     15  C   UNL     1      31.289  -0.723  51.336  1.00  0.00     0.049 A 
ATOM     16  C   UNL     1      30.395  -0.906  53.584  1.00  0.00     0.060 A 
ATOM     17  C   UNL     1      31.325  -1.278  52.611  1.00  0.00     0.039 A 
BRANCH  15  18
ATOM     18  N   UNL     1      32.255  -1.121  50.399  1.00  0.00    -0.306 N 
ATOM     19  C   UNL     1      33.566  -0.672  50.249  1.00  0.00     0.116 A 
ATOM     20  C   UNL     1      32.080  -1.968  49.378  1.00  0.00     0.204 A 
ATOM     21  C   UNL     1      34.096  -1.273  49.161  1.00  0.00     0.056 A 
ATOM     22  N   UNL     1      33.161  -2.105  48.650  1.00  0.00    -0.242 NA
ATOM     23  C   UNL     1      35.491  -1.123  48.604  1.00  0.00     0.068 C 
ENDBRANCH  15  18
BRANCH  16  24
ATOM     24  C   UNL     1      30.425  -1.492  54.959  1.00  0.00     0.416 C 
ATOM     25  F   UNL     1      31.272  -0.890  55.817  1.00  0.00    -0.166 F 
ATOM     26  F   UNL     1      29.257  -1.334  55.570  1.00  0.00    -0.166 F 
ATOM     27  F   UNL     1      30.838  -2.776  54.960  1.00  0.00    -0.166 F 
ENDBRANCH  16  24
ENDBRANCH  10  12
ENDBRANCH   1   8
BRANCH   6  28
ATOM     28  N   UNL     1      23.254   4.476  53.013  1.00  0.00    -0.324 N 
ATOM     29  H   UNL     1      22.348   3.999  53.120  1.00  0.00     0.170 HD
BRANCH  28  30
ATOM     30  C   UNL     1      23.525   5.642  53.731  1.00  0.00     0.227 A 
ATOM     31  N   UNL     1      24.543   5.903  54.542  1.00  0.00    -0.221 NA
ATOM     32  N   UNL     1      22.492   6.500  53.529  1.00  0.00    -0.213 NA
ATOM     33  C   UNL     1      24.540   7.104  55.150  1.00  0.00     0.117 A 
ATOM     34  C   UNL     1      22.518   7.669  54.180  1.00  0.00     0.077 A 
ATOM     35  C   UNL     1      23.540   7.988  55.002  1.00  0.00     0.049 A 
BRANCH  34  36
ATOM     36  C   UNL     1      21.383   8.586  53.897  1.00  0.00     0.019 A 
ATOM     37  C   UNL     1      20.056   8.223  54.180  1.00  0.00     0.013 A 
ATOM     38  C   UNL     1      21.611   9.850  53.319  1.00  0.00     0.121 A 
ATOM     39  C   UNL     1      19.033   9.111  53.871  1.00  0.00     0.021 A 
ATOM     40  N   UNL     1      20.629  10.707  53.012  1.00  0.00    -0.264 NA
ATOM     41  C   UNL     1      19.372  10.345  53.316  1.00  0.00     0.111 A 
ENDBRANCH  34  36
ENDBRANCH  28  30
ENDBRANCH   6  28
TORSDOF 7
ENDMDL
MODEL 20
REMARK VINA RESULT:   -10.336      8.402     14.403
REMARK INTER + INTRA:         -13.691
REMARK INTER:                 -12.424
REMARK INTRA:                  -1.267
REMARK CONF_INDEPENDENT:        2.088
REMARK UNBOUND:                -1.267
REMARK SMILES Cc1cn(-c2cc(NC(=O)c3ccc(C)c(Nc4nccc(-c5cccnc5)n4)c3)cc(C(F)(F)F)c2)cn1
REMARK SMILES IDX 11 1 12 2 13 3 14 4 15 5 16 6 30 7 9 8 10 9 8 10 7 12 6 13
REMARK SMILES IDX 31 14 5 15 32 16 37 17 4 18 3 19 38 20 2 21 39 22 1 23 33 24
REMARK SMILES IDX 34 25 35 26 36 27 17 28 18 30 19 31 29 32 20 33 22 34 21 35
REMARK SMILES IDX 23 36 24 37 28 38 25 39 27 40 26 41
REMARK H PARENT 8 11 17 29
ROOT
ATOM      1  C   UNL     1      35.879  -1.951  49.348  1.00  0.00     0.042 A 
ATOM      2  C   UNL     1      35.024  -3.060  49.259  1.00  0.00     0.014 A 
ATOM      3  C   UNL     1      33.654  -2.942  49.497  1.00  0.00     0.006 A 
ATOM      4  C   UNL     1      33.097  -1.742  49.911  1.00  0.00    -0.027 A 
ATOM      5  C   UNL     1      31.602  -1.630  50.174  1.00  0.00     0.046 C 
ATOM      6  C   UNL     1      33.958  -0.662  50.101  1.00  0.00     0.045 A 
ATOM      7  C   UNL     1      35.326  -0.795  49.833  1.00  0.00     0.040 A 
ENDROOT
BRANCH   1   8
ATOM      8  C   UNL     1      37.350  -2.010  49.238  1.00  0.00     0.255 C 
ATOM      9  O   UNL     1      37.775  -2.639  48.300  1.00  0.00    -0.269 OA
ATOM     10  N   UNL     1      38.036  -1.167  50.024  1.00  0.00    -0.322 N 
ATOM     11  H   UNL     1      37.491  -0.596  50.686  1.00  0.00     0.170 HD
BRANCH  10  12
ATOM     12  C   UNL     1      39.414  -0.993  50.028  1.00  0.00     0.044 A 
ATOM     13  C   UNL     1      40.002   0.166  49.464  1.00  0.00     0.052 A 
ATOM     14  C   UNL     1      40.266  -2.022  50.484  1.00  0.00     0.039 A 
ATOM     15  C   UNL     1      41.387   0.355  49.471  1.00  0.00     0.049 A 
ATOM     16  C   UNL     1      41.676  -1.819  50.512  1.00  0.00     0.060 A 
ATOM     17  C   UNL     1      42.212  -0.647  49.973  1.00  0.00     0.039 A 
BRANCH  15  18
ATOM     18  N   UNL     1      41.977   1.518  48.953  1.00  0.00    -0.306 N 
ATOM     19  C   UNL     1      43.319   1.771  48.678  1.00  0.00     0.116 A 
ATOM     20  C   UNL     1      41.365   2.680  48.698  1.00  0.00     0.204 A 
ATOM     21  C   UNL     1      43.432   3.055  48.274  1.00  0.00     0.056 A 
ATOM     22  N   UNL     1      42.194   3.597  48.262  1.00  0.00    -0.242 NA
ATOM     23  C   UNL     1      44.681   3.788  47.847  1.00  0.00     0.068 C 
ENDBRANCH  15  18
BRANCH  16  24
ATOM     24  C   UNL     1      42.550  -2.901  51.056  1.00  0.00     0.416 C 
ATOM     25  F   UNL     1      42.394  -4.107  50.474  1.00  0.00    -0.166 F 
ATOM     26  F   UNL     1      43.831  -2.645  50.817  1.00  0.00    -0.166 F 
ATOM     27  F   UNL     1      42.308  -3.149  52.360  1.00  0.00    -0.166 F 
ENDBRANCH  16  24
ENDBRANCH  10  12
ENDBRANCH   1   8
BRANCH   6  28
ATOM     28  N   UNL     1      33.400   0.597  50.359  1.00  0.00    -0.324 N 
ATOM     29  H   UNL     1      33.135   1.217  49.581  1.00  0.00     0.170 HD
BRANCH  28  30
ATOM     30  C   UNL     1      33.208   1.004  51.681  1.00  0.00     0.227 A 
ATOM     31  N   UNL     1      33.899   1.889  52.389  1.00  0.00    -0.221 NA
ATOM     32  N   UNL     1      32.193   0.263  52.197  1.00  0.00    -0.213 NA
ATOM     33  C   UNL     1      33.525   2.064  53.670  1.00  0.00     0.117 A 
ATOM     34  C   UNL     1      31.879   0.450  53.484  1.00  0.00     0.077 A 
ATOM     35  C   UNL     1      32.541   1.351  54.241  1.00  0.00     0.049 A 
BRANCH  34  36
ATOM     36  C   UNL     1      30.740  -0.360  53.990  1.00  0.00     0.019 A 
ATOM     37  C   UNL     1      29.629   0.238  54.605  1.00  0.00     0.013 A 
ATOM     38  C   UNL     1      30.755  -1.764  53.878  1.00  0.00     0.121 A 
ATOM     39  C   UNL     1      28.605  -0.570  55.083  1.00  0.00     0.021 A 
ATOM     40  N   UNL     1      29.774  -2.549  54.344  1.00  0.00    -0.264 NA
ATOM     41  C   UNL     1      28.712  -1.949  54.904  1.00  0.00     0.111 A 
ENDBRANCH  34  36
ENDBRANCH  28  30
ENDBRANCH   6  28
TORSDOF 7
ENDMDL
