MODEL 1
REMARK VINA RESULT:   -15.148      0.000      0.000
REMARK INTER + INTRA:         -18.418
REMARK INTER:                 -17.236
REMARK INTRA:                  -1.182
REMARK CONF_INDEPENDENT:        2.088
REMARK UNBOUND:                -1.182
REMARK SMILES Cc1cn(-c2cc(NC(=O)c3ccc(C)c(Nc4nccc(-c5cccnc5)n4)c3)cc(C(F)(F)F)c2)cn1
REMARK SMILES IDX 11 1 12 2 13 3 14 4 15 5 16 6 30 7 9 8 10 9 8 10 7 12 6 13
REMARK SMILES IDX 31 14 5 15 32 16 37 17 4 18 3 19 38 20 2 21 39 22 1 23 33 24
REMARK SMILES IDX 34 25 35 26 36 27 17 28 18 30 19 31 29 32 20 33 22 34 21 35
REMARK SMILES IDX 23 36 24 37 28 38 25 39 27 40 26 41
REMARK H PARENT 8 11 17 29
ROOT
ATOM      1  C   UNL     1      27.973   1.860  53.225  1.00  0.00     0.042 A 
ATOM      2  C   UNL     1      27.693   1.347  54.500  1.00  0.00     0.014 A 
ATOM      3  C   UNL     1      28.414   0.274  55.026  1.00  0.00     0.006 A 
ATOM      4  C   UNL     1      29.378  -0.380  54.276  1.00  0.00    -0.027 A 
ATOM      5  C   UNL     1      30.151  -1.555  54.859  1.00  0.00     0.046 C 
ATOM      6  C   UNL     1      29.588   0.059  52.969  1.00  0.00     0.045 A 
ATOM      7  C   UNL     1      28.872   1.154  52.469  1.00  0.00     0.040 A 
ENDROOT
BRANCH   1   8
ATOM      8  C   UNL     1      27.181   2.904  52.543  1.00  0.00     0.255 C 
ATOM      9  O   UNL     1      27.532   3.169  51.420  1.00  0.00    -0.269 OA
ATOM     10  N   UNL     1      26.030   3.254  53.136  1.00  0.00    -0.322 N 
ATOM     11  H   UNL     1      25.821   2.820  54.046  1.00  0.00     0.170 HD
BRANCH  10  12
ATOM     12  C   UNL     1      25.093   4.148  52.633  1.00  0.00     0.044 A 
ATOM     13  C   UNL     1      24.172   4.796  53.493  1.00  0.00     0.052 A 
ATOM     14  C   UNL     1      24.958   4.340  51.241  1.00  0.00     0.039 A 
ATOM     15  C   UNL     1      23.232   5.704  52.999  1.00  0.00     0.049 A 
ATOM     16  C   UNL     1      24.015   5.283  50.741  1.00  0.00     0.060 A 
ATOM     17  C   UNL     1      23.146   5.923  51.628  1.00  0.00     0.039 A 
BRANCH  15  18
ATOM     18  N   UNL     1      22.343   6.382  53.847  1.00  0.00    -0.306 N 
ATOM     19  C   UNL     1      22.029   6.117  55.178  1.00  0.00     0.116 A 
ATOM     20  C   UNL     1      21.530   7.391  53.513  1.00  0.00     0.204 A 
ATOM     21  C   UNL     1      21.059   6.975  55.562  1.00  0.00     0.056 A 
ATOM     22  N   UNL     1      20.784   7.786  54.516  1.00  0.00    -0.242 NA
ATOM     23  C   UNL     1      20.404   7.091  56.918  1.00  0.00     0.068 C 
ENDBRANCH  15  18
BRANCH  16  24
ATOM     24  C   UNL     1      23.936   5.511  49.266  1.00  0.00     0.416 C 
ATOM     25  F   UNL     1      24.604   6.593  48.820  1.00  0.00    -0.166 F 
ATOM     26  F   UNL     1      24.529   4.528  48.599  1.00  0.00    -0.166 F 
ATOM     27  F   UNL     1      22.672   5.729  48.848  1.00  0.00    -0.166 F 
ENDBRANCH  16  24
ENDBRANCH  10  12
ENDBRANCH   1   8
BRANCH   6  28
ATOM     28  N   UNL     1      30.665  -0.477  52.251  1.00  0.00    -0.324 N 
ATOM     29  H   UNL     1      30.525  -1.291  51.636  1.00  0.00     0.170 HD
BRANCH  28  30
ATOM     30  C   UNL     1      31.930   0.101  52.375  1.00  0.00     0.227 A 
ATOM     31  N   UNL     1      32.323   1.078  53.182  1.00  0.00    -0.221 NA
ATOM     32  N   UNL     1      32.734  -0.463  51.438  1.00  0.00    -0.213 NA
ATOM     33  C   UNL     1      33.602   1.481  53.067  1.00  0.00     0.117 A 
ATOM     34  C   UNL     1      33.988  -0.007  51.339  1.00  0.00     0.077 A 
ATOM     35  C   UNL     1      34.441   0.973  52.150  1.00  0.00     0.049 A 
BRANCH  34  36
ATOM     36  C   UNL     1      34.838  -0.681  50.323  1.00  0.00     0.019 A 
ATOM     37  C   UNL     1      36.147  -0.247  50.054  1.00  0.00     0.013 A 
ATOM     38  C   UNL     1      34.342  -1.774  49.586  1.00  0.00     0.121 A 
ATOM     39  C   UNL     1      36.886  -0.899  49.076  1.00  0.00     0.021 A 
ATOM     40  N   UNL     1      35.047  -2.401  48.636  1.00  0.00    -0.264 NA
ATOM     41  C   UNL     1      36.304  -1.982  48.417  1.00  0.00     0.111 A 
ENDBRANCH  34  36
ENDBRANCH  28  30
ENDBRANCH   6  28
TORSDOF 7
ENDMDL
MODEL 2
REMARK VINA RESULT:   -13.822      2.307      3.586
REMARK INTER + INTRA:         -17.137
REMARK INTER:                 -15.910
REMARK INTRA:                  -1.227
REMARK CONF_INDEPENDENT:        2.088
REMARK UNBOUND:                -1.227
REMARK SMILES Cc1cn(-c2cc(NC(=O)c3ccc(C)c(Nc4nccc(-c5cccnc5)n4)c3)cc(C(F)(F)F)c2)cn1
REMARK SMILES IDX 11 1 12 2 13 3 14 4 15 5 16 6 30 7 9 8 10 9 8 10 7 12 6 13
REMARK SMILES IDX 31 14 5 15 32 16 37 17 4 18 3 19 38 20 2 21 39 22 1 23 33 24
REMARK SMILES IDX 34 25 35 26 36 27 17 28 18 30 19 31 29 32 20 33 22 34 21 35
REMARK SMILES IDX 23 36 24 37 28 38 25 39 27 40 26 41
REMARK H PARENT 8 11 17 29
ROOT
ATOM      1  C   UNL     1      28.109   1.641  53.384  1.00  0.00     0.042 A 
ATOM      2  C   UNL     1      27.811   0.945  54.565  1.00  0.00     0.014 A 
ATOM      3  C   UNL     1      28.499  -0.217  54.918  1.00  0.00     0.006 A 
ATOM      4  C   UNL     1      29.446  -0.775  54.074  1.00  0.00    -0.027 A 
ATOM      5  C   UNL     1      30.182  -2.048  54.467  1.00  0.00     0.046 C 
ATOM      6  C   UNL     1      29.672  -0.146  52.851  1.00  0.00     0.045 A 
ATOM      7  C   UNL     1      28.990   1.034  52.527  1.00  0.00     0.040 A 
ENDROOT
BRANCH   1   8
ATOM      8  C   UNL     1      27.350   2.800  52.874  1.00  0.00     0.255 C 
ATOM      9  O   UNL     1      27.708   3.222  51.801  1.00  0.00    -0.269 OA
ATOM     10  N   UNL     1      26.211   3.092  53.519  1.00  0.00    -0.322 N 
ATOM     11  H   UNL     1      25.990   2.531  54.354  1.00  0.00     0.170 HD
BRANCH  10  12
ATOM     12  C   UNL     1      25.302   4.081  53.163  1.00  0.00     0.044 A 
ATOM     13  C   UNL     1      24.988   4.324  51.804  1.00  0.00     0.052 A 
ATOM     14  C   UNL     1      24.764   4.945  54.141  1.00  0.00     0.039 A 
ATOM     15  C   UNL     1      24.068   5.310  51.437  1.00  0.00     0.049 A 
ATOM     16  C   UNL     1      23.809   5.934  53.768  1.00  0.00     0.060 A 
ATOM     17  C   UNL     1      23.505   6.121  52.417  1.00  0.00     0.039 A 
BRANCH  15  18
ATOM     18  N   UNL     1      23.718   5.531  50.096  1.00  0.00    -0.306 N 
ATOM     19  C   UNL     1      22.451   5.574  49.518  1.00  0.00     0.116 A 
ATOM     20  C   UNL     1      24.555   5.658  49.060  1.00  0.00     0.204 A 
ATOM     21  C   UNL     1      22.601   5.728  48.184  1.00  0.00     0.056 A 
ATOM     22  N   UNL     1      23.924   5.811  47.922  1.00  0.00    -0.242 NA
ATOM     23  C   UNL     1      21.521   5.847  47.135  1.00  0.00     0.068 C 
ENDBRANCH  15  18
BRANCH  16  24
ATOM     24  C   UNL     1      23.210   6.796  54.831  1.00  0.00     0.416 C 
ATOM     25  F   UNL     1      22.269   6.196  55.587  1.00  0.00    -0.166 F 
ATOM     26  F   UNL     1      24.118   7.134  55.739  1.00  0.00    -0.166 F 
ATOM     27  F   UNL     1      22.566   7.867  54.321  1.00  0.00    -0.166 F 
ENDBRANCH  16  24
ENDBRANCH  10  12
ENDBRANCH   1   8
BRANCH   6  28
ATOM     28  N   UNL     1      30.734  -0.596  52.056  1.00  0.00    -0.324 N 
ATOM     29  H   UNL     1      30.577  -1.319  51.341  1.00  0.00     0.170 HD
BRANCH  28  30
ATOM     30  C   UNL     1      32.008  -0.055  52.242  1.00  0.00     0.227 A 
ATOM     31  N   UNL     1      32.395   0.895  53.084  1.00  0.00    -0.221 NA
ATOM     32  N   UNL     1      32.834  -0.622  51.325  1.00  0.00    -0.213 NA
ATOM     33  C   UNL     1      33.688   1.265  53.028  1.00  0.00     0.117 A 
ATOM     34  C   UNL     1      34.103  -0.199  51.286  1.00  0.00     0.077 A 
ATOM     35  C   UNL     1      34.549   0.752  52.134  1.00  0.00     0.049 A 
BRANCH  34  36
ATOM     36  C   UNL     1      34.975  -0.875  50.290  1.00  0.00     0.019 A 
ATOM     37  C   UNL     1      36.269  -0.409  50.009  1.00  0.00     0.013 A 
ATOM     38  C   UNL     1      34.513  -2.004  49.584  1.00  0.00     0.121 A 
ATOM     39  C   UNL     1      37.029  -1.066  49.049  1.00  0.00     0.021 A 
ATOM     40  N   UNL     1      35.238  -2.636  48.653  1.00  0.00    -0.264 NA
ATOM     41  C   UNL     1      36.482  -2.185  48.422  1.00  0.00     0.111 A 
ENDBRANCH  34  36
ENDBRANCH  28  30
ENDBRANCH   6  28
TORSDOF 7
ENDMDL
MODEL 3
REMARK VINA RESULT:   -12.661      2.687      3.999
REMARK INTER + INTRA:         -15.881
REMARK INTER:                 -14.749
REMARK INTRA:                  -1.132
REMARK CONF_INDEPENDENT:        2.088
REMARK UNBOUND:                -1.132
REMARK SMILES Cc1cn(-c2cc(NC(=O)c3ccc(C)c(Nc4nccc(-c5cccnc5)n4)c3)cc(C(F)(F)F)c2)cn1
REMARK SMILES IDX 11 1 12 2 13 3 14 4 15 5 16 6 30 7 9 8 10 9 8 10 7 12 6 13
REMARK SMILES IDX 31 14 5 15 32 16 37 17 4 18 3 19 38 20 2 21 39 22 1 23 33 24
REMARK SMILES IDX 34 25 35 26 36 27 17 28 18 30 19 31 29 32 20 33 22 34 21 35
REMARK SMILES IDX 23 36 24 37 28 38 25 39 27 40 26 41
REMARK H PARENT 8 11 17 29
ROOT
ATOM      1  C   UNL     1      28.373   2.372  52.660  1.00  0.00     0.042 A 
ATOM      2  C   UNL     1      28.294   2.669  54.029  1.00  0.00     0.014 A 
ATOM      3  C   UNL     1      29.125   2.043  54.959  1.00  0.00     0.006 A 
ATOM      4  C   UNL     1      30.004   1.042  54.577  1.00  0.00    -0.027 A 
ATOM      5  C   UNL     1      30.899   0.362  55.603  1.00  0.00     0.046 C 
ATOM      6  C   UNL     1      30.013   0.669  53.234  1.00  0.00     0.045 A 
ATOM      7  C   UNL     1      29.189   1.327  52.312  1.00  0.00     0.040 A 
ENDROOT
BRANCH   1   8
ATOM      8  C   UNL     1      27.451   2.889  51.630  1.00  0.00     0.255 C 
ATOM      9  O   UNL     1      27.901   2.940  50.511  1.00  0.00    -0.269 OA
ATOM     10  N   UNL     1      26.164   3.004  51.991  1.00  0.00    -0.322 N 
ATOM     11  H   UNL     1      25.932   2.787  52.970  1.00  0.00     0.170 HD
BRANCH  10  12
ATOM     12  C   UNL     1      25.116   3.388  51.164  1.00  0.00     0.044 A 
ATOM     13  C   UNL     1      24.381   2.426  50.427  1.00  0.00     0.052 A 
ATOM     14  C   UNL     1      24.837   4.755  50.946  1.00  0.00     0.039 A 
ATOM     15  C   UNL     1      23.319   2.802  49.600  1.00  0.00     0.049 A 
ATOM     16  C   UNL     1      23.740   5.134  50.121  1.00  0.00     0.060 A 
ATOM     17  C   UNL     1      23.022   4.151  49.436  1.00  0.00     0.039 A 
BRANCH  15  18
ATOM     18  N   UNL     1      22.558   1.854  48.899  1.00  0.00    -0.306 N 
ATOM     19  C   UNL     1      22.367   0.503  49.181  1.00  0.00     0.116 A 
ATOM     20  C   UNL     1      21.919   2.040  47.738  1.00  0.00     0.204 A 
ATOM     21  C   UNL     1      21.629  -0.036  48.186  1.00  0.00     0.056 A 
ATOM     22  N   UNL     1      21.332   0.949  47.310  1.00  0.00    -0.242 NA
ATOM     23  C   UNL     1      21.148  -1.461  48.053  1.00  0.00     0.068 C 
ENDBRANCH  15  18
BRANCH  16  24
ATOM     24  C   UNL     1      23.431   6.587  49.956  1.00  0.00     0.416 C 
ATOM     25  F   UNL     1      22.151   6.929  50.208  1.00  0.00    -0.166 F 
ATOM     26  F   UNL     1      24.091   7.320  50.845  1.00  0.00    -0.166 F 
ATOM     27  F   UNL     1      23.626   7.012  48.691  1.00  0.00    -0.166 F 
ENDBRANCH  16  24
ENDBRANCH  10  12
ENDBRANCH   1   8
BRANCH   6  28
ATOM     28  N   UNL     1      31.002  -0.222  52.796  1.00  0.00    -0.324 N 
ATOM     29  H   UNL     1      30.748  -1.172  52.491  1.00  0.00     0.170 HD
BRANCH  28  30
ATOM     30  C   UNL     1      32.337   0.190  52.777  1.00  0.00     0.227 A 
ATOM     31  N   UNL     1      32.947   1.074  53.556  1.00  0.00    -0.221 NA
ATOM     32  N   UNL     1      32.943  -0.427  51.730  1.00  0.00    -0.213 NA
ATOM     33  C   UNL     1      34.244   1.320  53.292  1.00  0.00     0.117 A 
ATOM     34  C   UNL     1      34.224  -0.126  51.488  1.00  0.00     0.077 A 
ATOM     35  C   UNL     1      34.893   0.753  52.263  1.00  0.00     0.049 A 
BRANCH  34  36
ATOM     36  C   UNL     1      34.851  -0.854  50.354  1.00  0.00     0.019 A 
ATOM     37  C   UNL     1      36.000  -0.365  49.711  1.00  0.00     0.013 A 
ATOM     38  C   UNL     1      34.294  -2.058  49.881  1.00  0.00     0.121 A 
ATOM     39  C   UNL     1      36.528  -1.074  48.640  1.00  0.00     0.021 A 
ATOM     40  N   UNL     1      34.794  -2.743  48.844  1.00  0.00    -0.264 NA
ATOM     41  C   UNL     1      35.907  -2.265  48.264  1.00  0.00     0.111 A 
ENDBRANCH  34  36
ENDBRANCH  28  30
ENDBRANCH   6  28
TORSDOF 7
ENDMDL
MODEL 4
REMARK VINA RESULT:   -11.486      2.073      3.053
REMARK INTER + INTRA:         -14.895
REMARK INTER:                 -13.574
REMARK INTRA:                  -1.321
REMARK CONF_INDEPENDENT:        2.088
REMARK UNBOUND:                -1.321
REMARK SMILES Cc1cn(-c2cc(NC(=O)c3ccc(C)c(Nc4nccc(-c5cccnc5)n4)c3)cc(C(F)(F)F)c2)cn1
REMARK SMILES IDX 11 1 12 2 13 3 14 4 15 5 16 6 30 7 9 8 10 9 8 10 7 12 6 13
REMARK SMILES IDX 31 14 5 15 32 16 37 17 4 18 3 19 38 20 2 21 39 22 1 23 33 24
REMARK SMILES IDX 34 25 35 26 36 27 17 28 18 30 19 31 29 32 20 33 22 34 21 35
REMARK SMILES IDX 23 36 24 37 28 38 25 39 27 40 26 41
REMARK H PARENT 8 11 17 29
ROOT
ATOM      1  C   UNL     1      26.995   2.398  52.405  1.00  0.00     0.042 A 
ATOM      2  C   UNL     1      27.150   1.026  52.161  1.00  0.00     0.014 A 
ATOM      3  C   UNL     1      27.928   0.222  52.995  1.00  0.00     0.006 A 
ATOM      4  C   UNL     1      28.645   0.764  54.050  1.00  0.00    -0.027 A 
ATOM      5  C   UNL     1      29.496  -0.124  54.947  1.00  0.00     0.046 C 
ATOM      6  C   UNL     1      28.578   2.144  54.235  1.00  0.00     0.045 A 
ATOM      7  C   UNL     1      27.772   2.929  53.402  1.00  0.00     0.040 A 
ENDROOT
BRANCH   1   8
ATOM      8  C   UNL     1      26.299   3.342  51.508  1.00  0.00     0.255 C 
ATOM      9  O   UNL     1      26.552   3.222  50.334  1.00  0.00    -0.269 OA
ATOM     10  N   UNL     1      25.293   4.043  52.052  1.00  0.00    -0.322 N 
ATOM     11  H   UNL     1      25.129   3.919  53.061  1.00  0.00     0.170 HD
BRANCH  10  12
ATOM     12  C   UNL     1      24.453   4.921  51.378  1.00  0.00     0.044 A 
ATOM     13  C   UNL     1      23.812   5.983  52.063  1.00  0.00     0.052 A 
ATOM     14  C   UNL     1      24.124   4.702  50.023  1.00  0.00     0.039 A 
ATOM     15  C   UNL     1      22.972   6.876  51.392  1.00  0.00     0.049 A 
ATOM     16  C   UNL     1      23.286   5.627  49.336  1.00  0.00     0.060 A 
ATOM     17  C   UNL     1      22.698   6.678  50.043  1.00  0.00     0.039 A 
BRANCH  15  18
ATOM     18  N   UNL     1      22.366   7.956  52.052  1.00  0.00    -0.306 N 
ATOM     19  C   UNL     1      21.532   7.943  53.169  1.00  0.00     0.116 A 
ATOM     20  C   UNL     1      22.393   9.241  51.679  1.00  0.00     0.204 A 
ATOM     21  C   UNL     1      21.117   9.208  53.400  1.00  0.00     0.056 A 
ATOM     22  N   UNL     1      21.693  10.009  52.476  1.00  0.00    -0.242 NA
ATOM     23  C   UNL     1      20.217   9.702  54.507  1.00  0.00     0.068 C 
ENDBRANCH  15  18
BRANCH  16  24
ATOM     24  C   UNL     1      23.003   5.404  47.886  1.00  0.00     0.416 C 
ATOM     25  F   UNL     1      23.829   6.049  47.039  1.00  0.00    -0.166 F 
ATOM     26  F   UNL     1      23.201   4.134  47.551  1.00  0.00    -0.166 F 
ATOM     27  F   UNL     1      21.780   5.847  47.528  1.00  0.00    -0.166 F 
ENDBRANCH  16  24
ENDBRANCH  10  12
ENDBRANCH   1   8
BRANCH   6  28
ATOM     28  N   UNL     1      29.160   2.691  55.386  1.00  0.00    -0.324 N 
ATOM     29  H   UNL     1      28.584   2.887  56.217  1.00  0.00     0.170 HD
BRANCH  28  30
ATOM     30  C   UNL     1      30.529   2.968  55.398  1.00  0.00     0.227 A 
ATOM     31  N   UNL     1      31.188   3.875  56.107  1.00  0.00    -0.221 NA
ATOM     32  N   UNL     1      31.117   2.178  54.464  1.00  0.00    -0.213 NA
ATOM     33  C   UNL     1      32.514   3.965  55.893  1.00  0.00     0.117 A 
ATOM     34  C   UNL     1      32.432   2.325  54.264  1.00  0.00     0.077 A 
ATOM     35  C   UNL     1      33.150   3.222  54.973  1.00  0.00     0.049 A 
BRANCH  34  36
ATOM     36  C   UNL     1      33.035   1.413  53.257  1.00  0.00     0.019 A 
ATOM     37  C   UNL     1      32.245   0.727  52.321  1.00  0.00     0.013 A 
ATOM     38  C   UNL     1      34.427   1.201  53.226  1.00  0.00     0.121 A 
ATOM     39  C   UNL     1      32.861  -0.132  51.419  1.00  0.00     0.021 A 
ATOM     40  N   UNL     1      35.025   0.369  52.364  1.00  0.00    -0.264 NA
ATOM     41  C   UNL     1      34.249  -0.256  51.464  1.00  0.00     0.111 A 
ENDBRANCH  34  36
ENDBRANCH  28  30
ENDBRANCH   6  28
TORSDOF 7
ENDMDL
MODEL 5
REMARK VINA RESULT:   -11.371      3.716     11.713
REMARK INTER + INTRA:         -14.611
REMARK INTER:                 -13.459
REMARK INTRA:                  -1.152
REMARK CONF_INDEPENDENT:        2.088
REMARK UNBOUND:                -1.152
REMARK SMILES Cc1cn(-c2cc(NC(=O)c3ccc(C)c(Nc4nccc(-c5cccnc5)n4)c3)cc(C(F)(F)F)c2)cn1
REMARK SMILES IDX 11 1 12 2 13 3 14 4 15 5 16 6 30 7 9 8 10 9 8 10 7 12 6 13
REMARK SMILES IDX 31 14 5 15 32 16 37 17 4 18 3 19 38 20 2 21 39 22 1 23 33 24
REMARK SMILES IDX 34 25 35 26 36 27 17 28 18 30 19 31 29 32 20 33 22 34 21 35
REMARK SMILES IDX 23 36 24 37 28 38 25 39 27 40 26 41
REMARK H PARENT 8 11 17 29
ROOT
ATOM      1  C   UNL     1      25.880   3.886  51.797  1.00  0.00     0.042 A 
ATOM      2  C   UNL     1      25.273   4.296  50.601  1.00  0.00     0.014 A 
ATOM      3  C   UNL     1      24.159   5.137  50.603  1.00  0.00     0.006 A 
ATOM      4  C   UNL     1      23.560   5.533  51.787  1.00  0.00    -0.027 A 
ATOM      5  C   UNL     1      22.341   6.445  51.773  1.00  0.00     0.046 C 
ATOM      6  C   UNL     1      24.096   5.045  52.978  1.00  0.00     0.045 A 
ATOM      7  C   UNL     1      25.229   4.222  52.956  1.00  0.00     0.040 A 
ENDROOT
BRANCH   1   8
ATOM      8  C   UNL     1      26.976   2.901  51.893  1.00  0.00     0.255 C 
ATOM      9  O   UNL     1      27.709   2.847  50.935  1.00  0.00    -0.269 OA
ATOM     10  N   UNL     1      27.188   2.367  53.105  1.00  0.00    -0.322 N 
ATOM     11  H   UNL     1      26.532   2.632  53.854  1.00  0.00     0.170 HD
BRANCH  10  12
ATOM     12  C   UNL     1      28.210   1.489  53.442  1.00  0.00     0.044 A 
ATOM     13  C   UNL     1      29.535   1.708  52.992  1.00  0.00     0.052 A 
ATOM     14  C   UNL     1      27.928   0.293  54.139  1.00  0.00     0.039 A 
ATOM     15  C   UNL     1      30.572   0.835  53.335  1.00  0.00     0.049 A 
ATOM     16  C   UNL     1      28.989  -0.583  54.506  1.00  0.00     0.060 A 
ATOM     17  C   UNL     1      30.287  -0.313  54.067  1.00  0.00     0.039 A 
BRANCH  15  18
ATOM     18  N   UNL     1      31.895   1.066  52.930  1.00  0.00    -0.306 N 
ATOM     19  C   UNL     1      32.568   0.574  51.813  1.00  0.00     0.116 A 
ATOM     20  C   UNL     1      32.830   1.751  53.600  1.00  0.00     0.204 A 
ATOM     21  C   UNL     1      33.851   0.991  51.875  1.00  0.00     0.056 A 
ATOM     22  N   UNL     1      33.987   1.753  52.983  1.00  0.00    -0.242 NA
ATOM     23  C   UNL     1      34.961   0.731  50.886  1.00  0.00     0.068 C 
ENDBRANCH  15  18
BRANCH  16  24
ATOM     24  C   UNL     1      28.670  -1.811  55.296  1.00  0.00     0.416 C 
ATOM     25  F   UNL     1      27.954  -2.743  54.636  1.00  0.00    -0.166 F 
ATOM     26  F   UNL     1      29.775  -2.480  55.604  1.00  0.00    -0.166 F 
ATOM     27  F   UNL     1      27.912  -1.541  56.378  1.00  0.00    -0.166 F 
ENDBRANCH  16  24
ENDBRANCH  10  12
ENDBRANCH   1   8
BRANCH   6  28
ATOM     28  N   UNL     1      23.611   5.559  54.187  1.00  0.00    -0.324 N 
ATOM     29  H   UNL     1      22.607   5.506  54.408  1.00  0.00     0.170 HD
BRANCH  28  30
ATOM     30  C   UNL     1      24.501   6.142  55.091  1.00  0.00     0.227 A 
ATOM     31  N   UNL     1      25.822   6.238  55.015  1.00  0.00    -0.221 NA
ATOM     32  N   UNL     1      23.782   6.557  56.167  1.00  0.00    -0.213 NA
ATOM     33  C   UNL     1      26.448   6.817  56.057  1.00  0.00     0.117 A 
ATOM     34  C   UNL     1      24.452   7.097  57.191  1.00  0.00     0.077 A 
ATOM     35  C   UNL     1      25.795   7.233  57.153  1.00  0.00     0.049 A 
BRANCH  34  36
ATOM     36  C   UNL     1      23.618   7.567  58.328  1.00  0.00     0.019 A 
ATOM     37  C   UNL     1      22.263   7.216  58.440  1.00  0.00     0.013 A 
ATOM     38  C   UNL     1      24.168   8.397  59.324  1.00  0.00     0.121 A 
ATOM     39  C   UNL     1      21.525   7.705  59.510  1.00  0.00     0.021 A 
ATOM     40  N   UNL     1      23.460   8.877  60.354  1.00  0.00    -0.264 NA
ATOM     41  C   UNL     1      22.173   8.506  60.450  1.00  0.00     0.111 A 
ENDBRANCH  34  36
ENDBRANCH  28  30
ENDBRANCH   6  28
TORSDOF 7
ENDMDL
MODEL 6
REMARK VINA RESULT:   -11.097      4.532      7.956
REMARK INTER + INTRA:         -14.207
REMARK INTER:                 -13.185
REMARK INTRA:                  -1.022
REMARK CONF_INDEPENDENT:        2.088
REMARK UNBOUND:                -1.022
REMARK SMILES Cc1cn(-c2cc(NC(=O)c3ccc(C)c(Nc4nccc(-c5cccnc5)n4)c3)cc(C(F)(F)F)c2)cn1
REMARK SMILES IDX 11 1 12 2 13 3 14 4 15 5 16 6 30 7 9 8 10 9 8 10 7 12 6 13
REMARK SMILES IDX 31 14 5 15 32 16 37 17 4 18 3 19 38 20 2 21 39 22 1 23 33 24
REMARK SMILES IDX 34 25 35 26 36 27 17 28 18 30 19 31 29 32 20 33 22 34 21 35
REMARK SMILES IDX 23 36 24 37 28 38 25 39 27 40 26 41
REMARK H PARENT 8 11 17 29
ROOT
ATOM      1  C   UNL     1      33.857  -0.510  50.749  1.00  0.00     0.042 A 
ATOM      2  C   UNL     1      33.857  -1.746  50.085  1.00  0.00     0.014 A 
ATOM      3  C   UNL     1      34.874  -2.092  49.194  1.00  0.00     0.006 A 
ATOM      4  C   UNL     1      35.878  -1.195  48.866  1.00  0.00    -0.027 A 
ATOM      5  C   UNL     1      36.976  -1.584  47.886  1.00  0.00     0.046 C 
ATOM      6  C   UNL     1      35.825   0.073  49.443  1.00  0.00     0.045 A 
ATOM      7  C   UNL     1      34.810   0.392  50.354  1.00  0.00     0.040 A 
ENDROOT
BRANCH   1   8
ATOM      8  C   UNL     1      32.762  -0.013  51.605  1.00  0.00     0.255 C 
ATOM      9  O   UNL     1      32.887   1.120  52.001  1.00  0.00    -0.269 OA
ATOM     10  N   UNL     1      31.651  -0.765  51.642  1.00  0.00    -0.322 N 
ATOM     11  H   UNL     1      31.674  -1.657  51.128  1.00  0.00     0.170 HD
BRANCH  10  12
ATOM     12  C   UNL     1      30.475  -0.451  52.311  1.00  0.00     0.044 A 
ATOM     13  C   UNL     1      29.694   0.666  51.923  1.00  0.00     0.052 A 
ATOM     14  C   UNL     1      30.094  -1.166  53.468  1.00  0.00     0.039 A 
ATOM     15  C   UNL     1      28.504   0.984  52.583  1.00  0.00     0.049 A 
ATOM     16  C   UNL     1      28.870  -0.854  54.125  1.00  0.00     0.060 A 
ATOM     17  C   UNL     1      28.115   0.238  53.691  1.00  0.00     0.039 A 
BRANCH  15  18
ATOM     18  N   UNL     1      27.702   2.063  52.181  1.00  0.00    -0.306 N 
ATOM     19  C   UNL     1      26.714   2.734  52.897  1.00  0.00     0.116 A 
ATOM     20  C   UNL     1      27.661   2.620  50.965  1.00  0.00     0.204 A 
ATOM     21  C   UNL     1      26.147   3.648  52.080  1.00  0.00     0.056 A 
ATOM     22  N   UNL     1      26.775   3.583  50.885  1.00  0.00    -0.242 NA
ATOM     23  C   UNL     1      25.046   4.629  52.404  1.00  0.00     0.068 C 
ENDBRANCH  15  18
BRANCH  16  24
ATOM     24  C   UNL     1      28.461  -1.666  55.311  1.00  0.00     0.416 C 
ATOM     25  F   UNL     1      27.527  -2.605  55.064  1.00  0.00    -0.166 F 
ATOM     26  F   UNL     1      29.474  -2.397  55.761  1.00  0.00    -0.166 F 
ATOM     27  F   UNL     1      27.900  -0.912  56.280  1.00  0.00    -0.166 F 
ENDBRANCH  16  24
ENDBRANCH  10  12
ENDBRANCH   1   8
BRANCH   6  28
ATOM     28  N   UNL     1      36.912   0.936  49.254  1.00  0.00    -0.324 N 
ATOM     29  H   UNL     1      36.756   1.908  48.952  1.00  0.00     0.170 HD
BRANCH  28  30
ATOM     30  C   UNL     1      38.208   0.469  49.480  1.00  0.00     0.227 A 
ATOM     31  N   UNL     1      38.635  -0.389  50.398  1.00  0.00    -0.221 NA
ATOM     32  N   UNL     1      39.035   1.116  48.619  1.00  0.00    -0.213 NA
ATOM     33  C   UNL     1      39.959  -0.637  50.425  1.00  0.00     0.117 A 
ATOM     34  C   UNL     1      40.346   0.861  48.706  1.00  0.00     0.077 A 
ATOM     35  C   UNL     1      40.828  -0.017  49.611  1.00  0.00     0.049 A 
BRANCH  34  36
ATOM     36  C   UNL     1      41.204   1.567  47.719  1.00  0.00     0.019 A 
ATOM     37  C   UNL     1      40.730   1.906  46.442  1.00  0.00     0.013 A 
ATOM     38  C   UNL     1      42.533   1.905  48.040  1.00  0.00     0.121 A 
ATOM     39  C   UNL     1      41.585   2.544  45.552  1.00  0.00     0.021 A 
ATOM     40  N   UNL     1      43.365   2.512  47.184  1.00  0.00    -0.264 NA
ATOM     41  C   UNL     1      42.878   2.847  45.978  1.00  0.00     0.111 A 
ENDBRANCH  34  36
ENDBRANCH  28  30
ENDBRANCH   6  28
TORSDOF 7
ENDMDL
MODEL 7
REMARK VINA RESULT:   -10.956      3.342      5.404
REMARK INTER + INTRA:         -14.122
REMARK INTER:                 -13.044
REMARK INTRA:                  -1.078
REMARK CONF_INDEPENDENT:        2.088
REMARK UNBOUND:                -1.078
REMARK SMILES Cc1cn(-c2cc(NC(=O)c3ccc(C)c(Nc4nccc(-c5cccnc5)n4)c3)cc(C(F)(F)F)c2)cn1
REMARK SMILES IDX 11 1 12 2 13 3 14 4 15 5 16 6 30 7 9 8 10 9 8 10 7 12 6 13
REMARK SMILES IDX 31 14 5 15 32 16 37 17 4 18 3 19 38 20 2 21 39 22 1 23 33 24
REMARK SMILES IDX 34 25 35 26 36 27 17 28 18 30 19 31 29 32 20 33 22 34 21 35
REMARK SMILES IDX 23 36 24 37 28 38 25 39 27 40 26 41
REMARK H PARENT 8 11 17 29
ROOT
ATOM      1  C   UNL     1      27.641   1.931  52.449  1.00  0.00     0.042 A 
ATOM      2  C   UNL     1      27.907   0.769  51.709  1.00  0.00     0.014 A 
ATOM      3  C   UNL     1      28.869  -0.153  52.124  1.00  0.00     0.006 A 
ATOM      4  C   UNL     1      29.658   0.084  53.238  1.00  0.00    -0.027 A 
ATOM      5  C   UNL     1      30.709  -0.926  53.675  1.00  0.00     0.046 C 
ATOM      6  C   UNL     1      29.470   1.287  53.918  1.00  0.00     0.045 A 
ATOM      7  C   UNL     1      28.482   2.187  53.501  1.00  0.00     0.040 A 
ENDROOT
BRANCH   1   8
ATOM      8  C   UNL     1      26.737   3.016  52.020  1.00  0.00     0.255 C 
ATOM      9  O   UNL     1      26.702   3.222  50.831  1.00  0.00    -0.269 OA
ATOM     10  N   UNL     1      25.880   3.473  52.945  1.00  0.00    -0.322 N 
ATOM     11  H   UNL     1      25.965   3.082  53.894  1.00  0.00     0.170 HD
BRANCH  10  12
ATOM     12  C   UNL     1      24.890   4.426  52.741  1.00  0.00     0.044 A 
ATOM     13  C   UNL     1      24.124   4.923  53.825  1.00  0.00     0.052 A 
ATOM     14  C   UNL     1      24.543   4.832  51.434  1.00  0.00     0.039 A 
ATOM     15  C   UNL     1      23.133   5.888  53.631  1.00  0.00     0.049 A 
ATOM     16  C   UNL     1      23.548   5.832  51.240  1.00  0.00     0.060 A 
ATOM     17  C   UNL     1      22.838   6.317  52.341  1.00  0.00     0.039 A 
BRANCH  15  18
ATOM     18  N   UNL     1      22.398   6.417  54.702  1.00  0.00    -0.306 N 
ATOM     19  C   UNL     1      22.698   6.400  56.063  1.00  0.00     0.116 A 
ATOM     20  C   UNL     1      21.185   6.979  54.642  1.00  0.00     0.204 A 
ATOM     21  C   UNL     1      21.661   6.951  56.731  1.00  0.00     0.056 A 
ATOM     22  N   UNL     1      20.739   7.337  55.821  1.00  0.00    -0.242 NA
ATOM     23  C   UNL     1      21.526   7.172  58.218  1.00  0.00     0.068 C 
ENDBRANCH  15  18
BRANCH  16  24
ATOM     24  C   UNL     1      23.244   6.287  49.850  1.00  0.00     0.416 C 
ATOM     25  F   UNL     1      21.991   6.024  49.427  1.00  0.00    -0.166 F 
ATOM     26  F   UNL     1      23.292   7.611  49.759  1.00  0.00    -0.166 F 
ATOM     27  F   UNL     1      24.020   5.678  48.930  1.00  0.00    -0.166 F 
ENDBRANCH  16  24
ENDBRANCH  10  12
ENDBRANCH   1   8
BRANCH   6  28
ATOM     28  N   UNL     1      30.139   1.475  55.135  1.00  0.00    -0.324 N 
ATOM     29  H   UNL     1      29.852   0.949  55.972  1.00  0.00     0.170 HD
BRANCH  28  30
ATOM     30  C   UNL     1      31.197   2.383  55.204  1.00  0.00     0.227 A 
ATOM     31  N   UNL     1      32.069   2.719  54.261  1.00  0.00    -0.221 NA
ATOM     32  N   UNL     1      31.259   2.849  56.478  1.00  0.00    -0.213 NA
ATOM     33  C   UNL     1      33.028   3.597  54.608  1.00  0.00     0.117 A 
ATOM     34  C   UNL     1      32.249   3.695  56.784  1.00  0.00     0.077 A 
ATOM     35  C   UNL     1      33.150   4.080  55.855  1.00  0.00     0.049 A 
BRANCH  34  36
ATOM     36  C   UNL     1      32.252   4.202  58.181  1.00  0.00     0.019 A 
ATOM     37  C   UNL     1      31.753   5.475  58.502  1.00  0.00     0.013 A 
ATOM     38  C   UNL     1      32.775   3.416  59.226  1.00  0.00     0.121 A 
ATOM     39  C   UNL     1      31.804   5.906  59.821  1.00  0.00     0.021 A 
ATOM     40  N   UNL     1      32.835   3.830  60.498  1.00  0.00    -0.264 NA
ATOM     41  C   UNL     1      32.327   5.041  60.782  1.00  0.00     0.111 A 
ENDBRANCH  34  36
ENDBRANCH  28  30
ENDBRANCH   6  28
TORSDOF 7
ENDMDL
MODEL 8
REMARK VINA RESULT:   -10.903      1.686      2.512
REMARK INTER + INTRA:         -14.274
REMARK INTER:                 -12.991
REMARK INTRA:                  -1.283
REMARK CONF_INDEPENDENT:        2.088
REMARK UNBOUND:                -1.283
REMARK SMILES Cc1cn(-c2cc(NC(=O)c3ccc(C)c(Nc4nccc(-c5cccnc5)n4)c3)cc(C(F)(F)F)c2)cn1
REMARK SMILES IDX 11 1 12 2 13 3 14 4 15 5 16 6 30 7 9 8 10 9 8 10 7 12 6 13
REMARK SMILES IDX 31 14 5 15 32 16 37 17 4 18 3 19 38 20 2 21 39 22 1 23 33 24
REMARK SMILES IDX 34 25 35 26 36 27 17 28 18 30 19 31 29 32 20 33 22 34 21 35
REMARK SMILES IDX 23 36 24 37 28 38 25 39 27 40 26 41
REMARK H PARENT 8 11 17 29
ROOT
ATOM      1  C   UNL     1      27.298   2.073  52.390  1.00  0.00     0.042 A 
ATOM      2  C   UNL     1      27.512   0.921  51.619  1.00  0.00     0.014 A 
ATOM      3  C   UNL     1      28.455  -0.038  51.991  1.00  0.00     0.006 A 
ATOM      4  C   UNL     1      29.274   0.149  53.093  1.00  0.00    -0.027 A 
ATOM      5  C   UNL     1      30.303  -0.903  53.483  1.00  0.00     0.046 C 
ATOM      6  C   UNL     1      29.137   1.340  53.804  1.00  0.00     0.045 A 
ATOM      7  C   UNL     1      28.168   2.279  53.429  1.00  0.00     0.040 A 
ENDROOT
BRANCH   1   8
ATOM      8  C   UNL     1      26.418   3.194  52.006  1.00  0.00     0.255 C 
ATOM      9  O   UNL     1      26.344   3.412  50.821  1.00  0.00    -0.269 OA
ATOM     10  N   UNL     1      25.616   3.674  52.968  1.00  0.00    -0.322 N 
ATOM     11  H   UNL     1      25.723   3.271  53.910  1.00  0.00     0.170 HD
BRANCH  10  12
ATOM     12  C   UNL     1      24.654   4.664  52.811  1.00  0.00     0.044 A 
ATOM     13  C   UNL     1      23.898   5.125  53.916  1.00  0.00     0.052 A 
ATOM     14  C   UNL     1      24.325   5.147  51.525  1.00  0.00     0.039 A 
ATOM     15  C   UNL     1      22.935   6.128  53.770  1.00  0.00     0.049 A 
ATOM     16  C   UNL     1      23.360   6.185  51.381  1.00  0.00     0.060 A 
ATOM     17  C   UNL     1      22.658   6.632  52.503  1.00  0.00     0.039 A 
BRANCH  15  18
ATOM     18  N   UNL     1      22.210   6.621  54.865  1.00  0.00    -0.306 N 
ATOM     19  C   UNL     1      22.558   6.626  56.215  1.00  0.00     0.116 A 
ATOM     20  C   UNL     1      20.967   7.117  54.846  1.00  0.00     0.204 A 
ATOM     21  C   UNL     1      21.517   7.123  56.917  1.00  0.00     0.056 A 
ATOM     22  N   UNL     1      20.544   7.455  56.039  1.00  0.00    -0.242 NA
ATOM     23  C   UNL     1      21.422   7.343  58.408  1.00  0.00     0.068 C 
ENDBRANCH  15  18
BRANCH  16  24
ATOM     24  C   UNL     1      23.075   6.720  50.016  1.00  0.00     0.416 C 
ATOM     25  F   UNL     1      22.054   6.121  49.371  1.00  0.00    -0.166 F 
ATOM     26  F   UNL     1      22.661   7.980  50.074  1.00  0.00    -0.166 F 
ATOM     27  F   UNL     1      24.116   6.558  49.173  1.00  0.00    -0.166 F 
ENDBRANCH  16  24
ENDBRANCH  10  12
ENDBRANCH   1   8
BRANCH   6  28
ATOM     28  N   UNL     1      29.836   1.480  55.010  1.00  0.00    -0.324 N 
ATOM     29  H   UNL     1      29.439   1.111  55.886  1.00  0.00     0.170 HD
BRANCH  28  30
ATOM     30  C   UNL     1      31.075   2.124  55.015  1.00  0.00     0.227 A 
ATOM     31  N   UNL     1      31.464   3.175  55.725  1.00  0.00    -0.221 NA
ATOM     32  N   UNL     1      31.852   1.529  54.074  1.00  0.00    -0.213 NA
ATOM     33  C   UNL     1      32.713   3.627  55.503  1.00  0.00     0.117 A 
ATOM     34  C   UNL     1      33.074   2.033  53.867  1.00  0.00     0.077 A 
ATOM     35  C   UNL     1      33.522   3.091  54.576  1.00  0.00     0.049 A 
BRANCH  34  36
ATOM     36  C   UNL     1      33.897   1.325  52.852  1.00  0.00     0.019 A 
ATOM     37  C   UNL     1      33.567   1.353  51.487  1.00  0.00     0.013 A 
ATOM     38  C   UNL     1      35.033   0.588  53.240  1.00  0.00     0.121 A 
ATOM     39  C   UNL     1      34.359   0.652  50.587  1.00  0.00     0.021 A 
ATOM     40  N   UNL     1      35.795  -0.097  52.377  1.00  0.00    -0.264 NA
ATOM     41  C   UNL     1      35.471  -0.031  51.075  1.00  0.00     0.111 A 
ENDBRANCH  34  36
ENDBRANCH  28  30
ENDBRANCH   6  28
TORSDOF 7
ENDMDL
MODEL 9
REMARK VINA RESULT:   -10.900      8.374     15.269
REMARK INTER + INTRA:         -14.285
REMARK INTER:                 -12.988
REMARK INTRA:                  -1.297
REMARK CONF_INDEPENDENT:        2.088
REMARK UNBOUND:                -1.297
REMARK SMILES Cc1cn(-c2cc(NC(=O)c3ccc(C)c(Nc4nccc(-c5cccnc5)n4)c3)cc(C(F)(F)F)c2)cn1
REMARK SMILES IDX 11 1 12 2 13 3 14 4 15 5 16 6 30 7 9 8 10 9 8 10 7 12 6 13
REMARK SMILES IDX 31 14 5 15 32 16 37 17 4 18 3 19 38 20 2 21 39 22 1 23 33 24
REMARK SMILES IDX 34 25 35 26 36 27 17 28 18 30 19 31 29 32 20 33 22 34 21 35
REMARK SMILES IDX 23 36 24 37 28 38 25 39 27 40 26 41
REMARK H PARENT 8 11 17 29
ROOT
ATOM      1  C   UNL     1      36.007  -1.699  49.306  1.00  0.00     0.042 A 
ATOM      2  C   UNL     1      35.210  -2.849  49.193  1.00  0.00     0.014 A 
ATOM      3  C   UNL     1      33.836  -2.807  49.431  1.00  0.00     0.006 A 
ATOM      4  C   UNL     1      33.217  -1.647  49.868  1.00  0.00    -0.027 A 
ATOM      5  C   UNL     1      31.718  -1.618  50.131  1.00  0.00     0.046 C 
ATOM      6  C   UNL     1      34.020  -0.528  50.081  1.00  0.00     0.045 A 
ATOM      7  C   UNL     1      35.394  -0.583  49.813  1.00  0.00     0.040 A 
ENDROOT
BRANCH   1   8
ATOM      8  C   UNL     1      37.479  -1.679  49.197  1.00  0.00     0.255 C 
ATOM      9  O   UNL     1      38.067  -1.330  50.192  1.00  0.00    -0.269 OA
ATOM     10  N   UNL     1      38.001  -2.280  48.117  1.00  0.00    -0.322 N 
ATOM     11  H   UNL     1      37.338  -2.646  47.420  1.00  0.00     0.170 HD
BRANCH  10  12
ATOM     12  C   UNL     1      39.354  -2.452  47.854  1.00  0.00     0.044 A 
ATOM     13  C   UNL     1      39.915  -2.027  46.624  1.00  0.00     0.052 A 
ATOM     14  C   UNL     1      40.176  -3.163  48.755  1.00  0.00     0.039 A 
ATOM     15  C   UNL     1      41.277  -2.187  46.354  1.00  0.00     0.049 A 
ATOM     16  C   UNL     1      41.568  -3.305  48.488  1.00  0.00     0.060 A 
ATOM     17  C   UNL     1      42.086  -2.844  47.276  1.00  0.00     0.039 A 
BRANCH  15  18
ATOM     18  N   UNL     1      41.850  -1.731  45.157  1.00  0.00    -0.306 N 
ATOM     19  C   UNL     1      42.150  -0.426  44.771  1.00  0.00     0.116 A 
ATOM     20  C   UNL     1      42.149  -2.468  44.081  1.00  0.00     0.204 A 
ATOM     21  C   UNL     1      42.610  -0.457  43.501  1.00  0.00     0.056 A 
ATOM     22  N   UNL     1      42.633  -1.747  43.099  1.00  0.00    -0.242 NA
ATOM     23  C   UNL     1      43.081   0.701  42.655  1.00  0.00     0.068 C 
ENDBRANCH  15  18
BRANCH  16  24
ATOM     24  C   UNL     1      42.426  -4.010  49.488  1.00  0.00     0.416 C 
ATOM     25  F   UNL     1      42.442  -5.353  49.378  1.00  0.00    -0.166 F 
ATOM     26  F   UNL     1      43.707  -3.704  49.317  1.00  0.00    -0.166 F 
ATOM     27  F   UNL     1      42.012  -3.804  50.755  1.00  0.00    -0.166 F 
ENDBRANCH  16  24
ENDBRANCH  10  12
ENDBRANCH   1   8
BRANCH   6  28
ATOM     28  N   UNL     1      33.398   0.695  50.365  1.00  0.00    -0.324 N 
ATOM     29  H   UNL     1      33.084   1.308  49.599  1.00  0.00     0.170 HD
BRANCH  28  30
ATOM     30  C   UNL     1      33.206   1.076  51.694  1.00  0.00     0.227 A 
ATOM     31  N   UNL     1      33.898   1.947  52.419  1.00  0.00    -0.221 NA
ATOM     32  N   UNL     1      32.192   0.325  52.196  1.00  0.00    -0.213 NA
ATOM     33  C   UNL     1      33.525   2.097  53.704  1.00  0.00     0.117 A 
ATOM     34  C   UNL     1      31.879   0.487  53.487  1.00  0.00     0.077 A 
ATOM     35  C   UNL     1      32.542   1.373  54.261  1.00  0.00     0.049 A 
BRANCH  34  36
ATOM     36  C   UNL     1      30.740  -0.332  53.978  1.00  0.00     0.019 A 
ATOM     37  C   UNL     1      29.630   0.254  54.607  1.00  0.00     0.013 A 
ATOM     38  C   UNL     1      30.754  -1.734  53.838  1.00  0.00     0.121 A 
ATOM     39  C   UNL     1      28.607  -0.564  55.069  1.00  0.00     0.021 A 
ATOM     40  N   UNL     1      29.774  -2.528  54.288  1.00  0.00    -0.264 NA
ATOM     41  C   UNL     1      28.712  -1.938  54.863  1.00  0.00     0.111 A 
ENDBRANCH  34  36
ENDBRANCH  28  30
ENDBRANCH   6  28
TORSDOF 7
ENDMDL
MODEL 10
REMARK VINA RESULT:   -10.886      3.947     11.688
REMARK INTER + INTRA:         -14.094
REMARK INTER:                 -12.974
REMARK INTRA:                  -1.120
REMARK CONF_INDEPENDENT:        2.088
REMARK UNBOUND:                -1.120
REMARK SMILES Cc1cn(-c2cc(NC(=O)c3ccc(C)c(Nc4nccc(-c5cccnc5)n4)c3)cc(C(F)(F)F)c2)cn1
REMARK SMILES IDX 11 1 12 2 13 3 14 4 15 5 16 6 30 7 9 8 10 9 8 10 7 12 6 13
REMARK SMILES IDX 31 14 5 15 32 16 37 17 4 18 3 19 38 20 2 21 39 22 1 23 33 24
REMARK SMILES IDX 34 25 35 26 36 27 17 28 18 30 19 31 29 32 20 33 22 34 21 35
REMARK SMILES IDX 23 36 24 37 28 38 25 39 27 40 26 41
REMARK H PARENT 8 11 17 29
ROOT
ATOM      1  C   UNL     1      25.724   3.530  51.890  1.00  0.00     0.042 A 
ATOM      2  C   UNL     1      24.850   3.342  50.809  1.00  0.00     0.014 A 
ATOM      3  C   UNL     1      23.518   3.756  50.870  1.00  0.00     0.006 A 
ATOM      4  C   UNL     1      22.986   4.294  52.031  1.00  0.00    -0.027 A 
ATOM      5  C   UNL     1      21.530   4.735  52.086  1.00  0.00     0.046 C 
ATOM      6  C   UNL     1      23.822   4.388  53.142  1.00  0.00     0.045 A 
ATOM      7  C   UNL     1      25.162   3.990  53.053  1.00  0.00     0.040 A 
ENDROOT
BRANCH   1   8
ATOM      8  C   UNL     1      27.104   3.011  51.959  1.00  0.00     0.255 C 
ATOM      9  O   UNL     1      27.654   2.858  50.895  1.00  0.00    -0.269 OA
ATOM     10  N   UNL     1      27.676   3.008  53.172  1.00  0.00    -0.322 N 
ATOM     11  H   UNL     1      27.089   3.302  53.966  1.00  0.00     0.170 HD
BRANCH  10  12
ATOM     12  C   UNL     1      28.986   2.644  53.457  1.00  0.00     0.044 A 
ATOM     13  C   UNL     1      29.673   1.710  52.643  1.00  0.00     0.052 A 
ATOM     14  C   UNL     1      29.620   3.104  54.631  1.00  0.00     0.039 A 
ATOM     15  C   UNL     1      30.995   1.345  52.915  1.00  0.00     0.049 A 
ATOM     16  C   UNL     1      30.974   2.749  54.894  1.00  0.00     0.060 A 
ATOM     17  C   UNL     1      31.625   1.848  54.049  1.00  0.00     0.039 A 
BRANCH  15  18
ATOM     18  N   UNL     1      31.699   0.453  52.092  1.00  0.00    -0.306 N 
ATOM     19  C   UNL     1      31.223  -0.333  51.044  1.00  0.00     0.116 A 
ATOM     20  C   UNL     1      32.984   0.099  52.208  1.00  0.00     0.204 A 
ATOM     21  C   UNL     1      32.240  -1.100  50.595  1.00  0.00     0.056 A 
ATOM     22  N   UNL     1      33.342  -0.791  51.315  1.00  0.00    -0.242 NA
ATOM     23  C   UNL     1      32.222  -2.097  49.462  1.00  0.00     0.068 C 
ENDBRANCH  15  18
BRANCH  16  24
ATOM     24  C   UNL     1      31.640   3.299  56.113  1.00  0.00     0.416 C 
ATOM     25  F   UNL     1      31.648   2.474  57.179  1.00  0.00    -0.166 F 
ATOM     26  F   UNL     1      32.937   3.489  55.903  1.00  0.00    -0.166 F 
ATOM     27  F   UNL     1      31.025   4.406  56.579  1.00  0.00    -0.166 F 
ENDBRANCH  16  24
ENDBRANCH  10  12
ENDBRANCH   1   8
BRANCH   6  28
ATOM     28  N   UNL     1      23.357   5.075  54.271  1.00  0.00    -0.324 N 
ATOM     29  H   UNL     1      22.376   4.978  54.570  1.00  0.00     0.170 HD
BRANCH  28  30
ATOM     30  C   UNL     1      24.233   5.891  54.988  1.00  0.00     0.227 A 
ATOM     31  N   UNL     1      25.482   6.231  54.696  1.00  0.00    -0.221 NA
ATOM     32  N   UNL     1      23.611   6.251  56.140  1.00  0.00    -0.213 NA
ATOM     33  C   UNL     1      26.125   7.004  55.591  1.00  0.00     0.117 A 
ATOM     34  C   UNL     1      24.301   6.993  57.014  1.00  0.00     0.077 A 
ATOM     35  C   UNL     1      25.569   7.379  56.754  1.00  0.00     0.049 A 
BRANCH  34  36
ATOM     36  C   UNL     1      23.565   7.390  58.243  1.00  0.00     0.019 A 
ATOM     37  C   UNL     1      22.168   7.281  58.330  1.00  0.00     0.013 A 
ATOM     38  C   UNL     1      24.257   7.905  59.356  1.00  0.00     0.121 A 
ATOM     39  C   UNL     1      21.531   7.690  59.494  1.00  0.00     0.021 A 
ATOM     40  N   UNL     1      23.647   8.309  60.478  1.00  0.00    -0.264 NA
ATOM     41  C   UNL     1      22.313   8.170  60.544  1.00  0.00     0.111 A 
ENDBRANCH  34  36
ENDBRANCH  28  30
ENDBRANCH   6  28
TORSDOF 7
ENDMDL
MODEL 11
REMARK VINA RESULT:   -10.856      3.546     12.057
REMARK INTER + INTRA:         -14.286
REMARK INTER:                 -12.944
REMARK INTRA:                  -1.342
REMARK CONF_INDEPENDENT:        2.088
REMARK UNBOUND:                -1.342
REMARK SMILES Cc1cn(-c2cc(NC(=O)c3ccc(C)c(Nc4nccc(-c5cccnc5)n4)c3)cc(C(F)(F)F)c2)cn1
REMARK SMILES IDX 11 1 12 2 13 3 14 4 15 5 16 6 30 7 9 8 10 9 8 10 7 12 6 13
REMARK SMILES IDX 31 14 5 15 32 16 37 17 4 18 3 19 38 20 2 21 39 22 1 23 33 24
REMARK SMILES IDX 34 25 35 26 36 27 17 28 18 30 19 31 29 32 20 33 22 34 21 35
REMARK SMILES IDX 23 36 24 37 28 38 25 39 27 40 26 41
REMARK H PARENT 8 11 17 29
ROOT
ATOM      1  C   UNL     1      25.584   3.645  51.854  1.00  0.00     0.042 A 
ATOM      2  C   UNL     1      24.805   3.758  50.692  1.00  0.00     0.014 A 
ATOM      3  C   UNL     1      23.465   4.142  50.751  1.00  0.00     0.006 A 
ATOM      4  C   UNL     1      22.828   4.347  51.964  1.00  0.00    -0.027 A 
ATOM      5  C   UNL     1      21.364   4.759  52.013  1.00  0.00     0.046 C 
ATOM      6  C   UNL     1      23.569   4.136  53.126  1.00  0.00     0.045 A 
ATOM      7  C   UNL     1      24.920   3.775  53.046  1.00  0.00     0.040 A 
ENDROOT
BRANCH   1   8
ATOM      8  C   UNL     1      26.965   3.125  51.896  1.00  0.00     0.255 C 
ATOM      9  O   UNL     1      27.534   3.078  50.832  1.00  0.00    -0.269 OA
ATOM     10  N   UNL     1      27.515   3.005  53.114  1.00  0.00    -0.322 N 
ATOM     11  H   UNL     1      26.914   3.219  53.921  1.00  0.00     0.170 HD
BRANCH  10  12
ATOM     12  C   UNL     1      28.822   2.617  53.384  1.00  0.00     0.044 A 
ATOM     13  C   UNL     1      29.459   1.618  52.608  1.00  0.00     0.052 A 
ATOM     14  C   UNL     1      29.501   3.123  54.514  1.00  0.00     0.039 A 
ATOM     15  C   UNL     1      30.777   1.229  52.866  1.00  0.00     0.049 A 
ATOM     16  C   UNL     1      30.851   2.742  54.762  1.00  0.00     0.060 A 
ATOM     17  C   UNL     1      31.452   1.775  53.953  1.00  0.00     0.039 A 
BRANCH  15  18
ATOM     18  N   UNL     1      31.431   0.271  52.077  1.00  0.00    -0.306 N 
ATOM     19  C   UNL     1      32.798   0.046  51.928  1.00  0.00     0.116 A 
ATOM     20  C   UNL     1      30.863  -0.582  51.217  1.00  0.00     0.204 A 
ATOM     21  C   UNL     1      32.968  -0.922  51.000  1.00  0.00     0.056 A 
ATOM     22  N   UNL     1      31.744  -1.324  50.591  1.00  0.00    -0.242 NA
ATOM     23  C   UNL     1      34.264  -1.523  50.511  1.00  0.00     0.068 C 
ENDBRANCH  15  18
BRANCH  16  24
ATOM     24  C   UNL     1      31.566   3.339  55.930  1.00  0.00     0.416 C 
ATOM     25  F   UNL     1      30.936   4.379  56.513  1.00  0.00    -0.166 F 
ATOM     26  F   UNL     1      31.650   2.472  56.932  1.00  0.00    -0.166 F 
ATOM     27  F   UNL     1      32.767   3.851  55.589  1.00  0.00    -0.166 F 
ENDBRANCH  16  24
ENDBRANCH  10  12
ENDBRANCH   1   8
BRANCH   6  28
ATOM     28  N   UNL     1      22.999   4.493  54.355  1.00  0.00    -0.324 N 
ATOM     29  H   UNL     1      22.425   3.815  54.877  1.00  0.00     0.170 HD
BRANCH  28  30
ATOM     30  C   UNL     1      23.214   5.774  54.866  1.00  0.00     0.227 A 
ATOM     31  N   UNL     1      24.133   6.182  55.732  1.00  0.00    -0.221 NA
ATOM     32  N   UNL     1      22.237   6.582  54.377  1.00  0.00    -0.213 NA
ATOM     33  C   UNL     1      24.091   7.478  56.094  1.00  0.00     0.117 A 
ATOM     34  C   UNL     1      22.217   7.854  54.791  1.00  0.00     0.077 A 
ATOM     35  C   UNL     1      23.142   8.321  55.658  1.00  0.00     0.049 A 
BRANCH  34  36
ATOM     36  C   UNL     1      21.151   8.705  54.201  1.00  0.00     0.019 A 
ATOM     37  C   UNL     1      19.823   8.260  54.107  1.00  0.00     0.013 A 
ATOM     38  C   UNL     1      21.454   9.987  53.701  1.00  0.00     0.121 A 
ATOM     39  C   UNL     1      18.873   9.089  53.523  1.00  0.00     0.021 A 
ATOM     40  N   UNL     1      20.545  10.787  53.130  1.00  0.00    -0.264 NA
ATOM     41  C   UNL     1      19.277  10.347  53.077  1.00  0.00     0.111 A 
ENDBRANCH  34  36
ENDBRANCH  28  30
ENDBRANCH   6  28
TORSDOF 7
ENDMDL
MODEL 12
REMARK VINA RESULT:   -10.849      4.116     11.193
REMARK INTER + INTRA:         -14.044
REMARK INTER:                 -12.937
REMARK INTRA:                  -1.107
REMARK CONF_INDEPENDENT:        2.088
REMARK UNBOUND:                -1.107
REMARK SMILES Cc1cn(-c2cc(NC(=O)c3ccc(C)c(Nc4nccc(-c5cccnc5)n4)c3)cc(C(F)(F)F)c2)cn1
REMARK SMILES IDX 11 1 12 2 13 3 14 4 15 5 16 6 30 7 9 8 10 9 8 10 7 12 6 13
REMARK SMILES IDX 31 14 5 15 32 16 37 17 4 18 3 19 38 20 2 21 39 22 1 23 33 24
REMARK SMILES IDX 34 25 35 26 36 27 17 28 18 30 19 31 29 32 20 33 22 34 21 35
REMARK SMILES IDX 23 36 24 37 28 38 25 39 27 40 26 41
REMARK H PARENT 8 11 17 29
ROOT
ATOM      1  C   UNL     1      25.651   3.990  51.964  1.00  0.00     0.042 A 
ATOM      2  C   UNL     1      25.074   4.610  50.845  1.00  0.00     0.014 A 
ATOM      3  C   UNL     1      24.014   5.508  50.977  1.00  0.00     0.006 A 
ATOM      4  C   UNL     1      23.435   5.759  52.211  1.00  0.00    -0.027 A 
ATOM      5  C   UNL     1      22.274   6.735  52.338  1.00  0.00     0.046 C 
ATOM      6  C   UNL     1      23.936   5.068  53.313  1.00  0.00     0.045 A 
ATOM      7  C   UNL     1      25.016   4.189  53.163  1.00  0.00     0.040 A 
ENDROOT
BRANCH   1   8
ATOM      8  C   UNL     1      26.684   2.938  51.907  1.00  0.00     0.255 C 
ATOM      9  O   UNL     1      27.342   2.912  50.895  1.00  0.00    -0.269 OA
ATOM     10  N   UNL     1      26.946   2.302  53.059  1.00  0.00    -0.322 N 
ATOM     11  H   UNL     1      26.364   2.549  53.872  1.00  0.00     0.170 HD
BRANCH  10  12
ATOM     12  C   UNL     1      27.930   1.341  53.255  1.00  0.00     0.044 A 
ATOM     13  C   UNL     1      29.098   1.322  52.453  1.00  0.00     0.052 A 
ATOM     14  C   UNL     1      27.733   0.290  54.177  1.00  0.00     0.039 A 
ATOM     15  C   UNL     1      30.098   0.366  52.650  1.00  0.00     0.049 A 
ATOM     16  C   UNL     1      28.763  -0.670  54.391  1.00  0.00     0.060 A 
ATOM     17  C   UNL     1      29.912  -0.634  53.599  1.00  0.00     0.039 A 
BRANCH  15  18
ATOM     18  N   UNL     1      31.277   0.364  51.889  1.00  0.00    -0.306 N 
ATOM     19  C   UNL     1      32.589   0.580  52.307  1.00  0.00     0.116 A 
ATOM     20  C   UNL     1      31.373   0.240  50.560  1.00  0.00     0.204 A 
ATOM     21  C   UNL     1      33.386   0.569  51.216  1.00  0.00     0.056 A 
ATOM     22  N   UNL     1      32.611   0.323  50.137  1.00  0.00    -0.242 NA
ATOM     23  C   UNL     1      34.885   0.740  51.160  1.00  0.00     0.068 C 
ENDBRANCH  15  18
BRANCH  16  24
ATOM     24  C   UNL     1      28.553  -1.737  55.416  1.00  0.00     0.416 C 
ATOM     25  F   UNL     1      27.793  -2.774  55.011  1.00  0.00    -0.166 F 
ATOM     26  F   UNL     1      29.697  -2.337  55.722  1.00  0.00    -0.166 F 
ATOM     27  F   UNL     1      27.903  -1.280  56.507  1.00  0.00    -0.166 F 
ENDBRANCH  16  24
ENDBRANCH  10  12
ENDBRANCH   1   8
BRANCH   6  28
ATOM     28  N   UNL     1      23.478   5.424  54.588  1.00  0.00    -0.324 N 
ATOM     29  H   UNL     1      22.814   4.817  55.089  1.00  0.00     0.170 HD
BRANCH  28  30
ATOM     30  C   UNL     1      23.929   6.609  55.173  1.00  0.00     0.227 A 
ATOM     31  N   UNL     1      23.926   7.838  54.673  1.00  0.00    -0.221 NA
ATOM     32  N   UNL     1      24.476   6.292  56.375  1.00  0.00    -0.213 NA
ATOM     33  C   UNL     1      24.466   8.805  55.439  1.00  0.00     0.117 A 
ATOM     34  C   UNL     1      25.030   7.281  57.085  1.00  0.00     0.077 A 
ATOM     35  C   UNL     1      25.036   8.552  56.628  1.00  0.00     0.049 A 
BRANCH  34  36
ATOM     36  C   UNL     1      25.583   6.890  58.408  1.00  0.00     0.019 A 
ATOM     37  C   UNL     1      24.772   6.813  59.551  1.00  0.00     0.013 A 
ATOM     38  C   UNL     1      26.953   6.597  58.552  1.00  0.00     0.121 A 
ATOM     39  C   UNL     1      25.349   6.466  60.766  1.00  0.00     0.021 A 
ATOM     40  N   UNL     1      27.517   6.270  59.722  1.00  0.00    -0.264 NA
ATOM     41  C   UNL     1      26.713   6.179  60.794  1.00  0.00     0.111 A 
ENDBRANCH  34  36
ENDBRANCH  28  30
ENDBRANCH   6  28
TORSDOF 7
ENDMDL
MODEL 13
REMARK VINA RESULT:   -10.795      4.669     13.504
REMARK INTER + INTRA:         -14.224
REMARK INTER:                 -12.883
REMARK INTRA:                  -1.340
REMARK CONF_INDEPENDENT:        2.088
REMARK UNBOUND:                -1.340
REMARK SMILES Cc1cn(-c2cc(NC(=O)c3ccc(C)c(Nc4nccc(-c5cccnc5)n4)c3)cc(C(F)(F)F)c2)cn1
REMARK SMILES IDX 11 1 12 2 13 3 14 4 15 5 16 6 30 7 9 8 10 9 8 10 7 12 6 13
REMARK SMILES IDX 31 14 5 15 32 16 37 17 4 18 3 19 38 20 2 21 39 22 1 23 33 24
REMARK SMILES IDX 34 25 35 26 36 27 17 28 18 30 19 31 29 32 20 33 22 34 21 35
REMARK SMILES IDX 23 36 24 37 28 38 25 39 27 40 26 41
REMARK H PARENT 8 11 17 29
ROOT
ATOM      1  C   UNL     1      21.090   7.313  54.267  1.00  0.00     0.042 A 
ATOM      2  C   UNL     1      20.956   7.462  55.655  1.00  0.00     0.014 A 
ATOM      3  C   UNL     1      20.221   8.513  56.206  1.00  0.00     0.006 A 
ATOM      4  C   UNL     1      19.665   9.498  55.405  1.00  0.00    -0.027 A 
ATOM      5  C   UNL     1      18.872  10.642  56.020  1.00  0.00     0.046 C 
ATOM      6  C   UNL     1      19.883   9.412  54.031  1.00  0.00     0.045 A 
ATOM      7  C   UNL     1      20.602   8.336  53.496  1.00  0.00     0.040 A 
ENDROOT
BRANCH   1   8
ATOM      8  C   UNL     1      21.950   6.312  53.605  1.00  0.00     0.255 C 
ATOM      9  O   UNL     1      21.898   5.198  54.068  1.00  0.00    -0.269 OA
ATOM     10  N   UNL     1      22.487   6.676  52.431  1.00  0.00    -0.322 N 
ATOM     11  H   UNL     1      22.315   7.642  52.118  1.00  0.00     0.170 HD
BRANCH  10  12
ATOM     12  C   UNL     1      23.255   5.870  51.600  1.00  0.00     0.044 A 
ATOM     13  C   UNL     1      24.319   5.093  52.122  1.00  0.00     0.052 A 
ATOM     14  C   UNL     1      23.070   5.899  50.201  1.00  0.00     0.039 A 
ATOM     15  C   UNL     1      25.091   4.272  51.295  1.00  0.00     0.049 A 
ATOM     16  C   UNL     1      23.843   5.045  49.363  1.00  0.00     0.060 A 
ATOM     17  C   UNL     1      24.862   4.272  49.923  1.00  0.00     0.039 A 
BRANCH  15  18
ATOM     18  N   UNL     1      26.120   3.467  51.808  1.00  0.00    -0.306 N 
ATOM     19  C   UNL     1      26.445   3.203  53.137  1.00  0.00     0.116 A 
ATOM     20  C   UNL     1      27.077   2.847  51.107  1.00  0.00     0.204 A 
ATOM     21  C   UNL     1      27.563   2.444  53.155  1.00  0.00     0.056 A 
ATOM     22  N   UNL     1      27.924   2.206  51.874  1.00  0.00    -0.242 NA
ATOM     23  C   UNL     1      28.289   1.889  54.356  1.00  0.00     0.068 C 
ENDBRANCH  15  18
BRANCH  16  24
ATOM     24  C   UNL     1      23.584   5.052  47.891  1.00  0.00     0.416 C 
ATOM     25  F   UNL     1      22.286   4.962  47.540  1.00  0.00    -0.166 F 
ATOM     26  F   UNL     1      23.936   6.213  47.351  1.00  0.00    -0.166 F 
ATOM     27  F   UNL     1      24.152   4.000  47.266  1.00  0.00    -0.166 F 
ENDBRANCH  16  24
ENDBRANCH  10  12
ENDBRANCH   1   8
BRANCH   6  28
ATOM     28  N   UNL     1      19.198  10.300  53.191  1.00  0.00    -0.324 N 
ATOM     29  H   UNL     1      19.717  10.892  52.528  1.00  0.00     0.170 HD
BRANCH  28  30
ATOM     30  C   UNL     1      17.805  10.374  53.259  1.00  0.00     0.227 A 
ATOM     31  N   UNL     1      17.027  11.449  53.247  1.00  0.00    -0.221 NA
ATOM     32  N   UNL     1      17.333   9.112  53.428  1.00  0.00    -0.213 NA
ATOM     33  C   UNL     1      15.703  11.240  53.372  1.00  0.00     0.117 A 
ATOM     34  C   UNL     1      16.013   8.957  53.580  1.00  0.00     0.077 A 
ATOM     35  C   UNL     1      15.178  10.019  53.557  1.00  0.00     0.049 A 
BRANCH  34  36
ATOM     36  C   UNL     1      15.543   7.555  53.726  1.00  0.00     0.019 A 
ATOM     37  C   UNL     1      14.775   7.147  54.829  1.00  0.00     0.013 A 
ATOM     38  C   UNL     1      15.874   6.586  52.759  1.00  0.00     0.121 A 
ATOM     39  C   UNL     1      14.386   5.817  54.925  1.00  0.00     0.021 A 
ATOM     40  N   UNL     1      15.508   5.301  52.851  1.00  0.00    -0.264 NA
ATOM     41  C   UNL     1      14.752   4.944  53.902  1.00  0.00     0.111 A 
ENDBRANCH  34  36
ENDBRANCH  28  30
ENDBRANCH   6  28
TORSDOF 7
ENDMDL
MODEL 14
REMARK VINA RESULT:   -10.580      8.255     14.917
REMARK INTER + INTRA:         -14.026
REMARK INTER:                 -12.668
REMARK INTRA:                  -1.358
REMARK CONF_INDEPENDENT:        2.088
REMARK UNBOUND:                -1.358
REMARK SMILES Cc1cn(-c2cc(NC(=O)c3ccc(C)c(Nc4nccc(-c5cccnc5)n4)c3)cc(C(F)(F)F)c2)cn1
REMARK SMILES IDX 11 1 12 2 13 3 14 4 15 5 16 6 30 7 9 8 10 9 8 10 7 12 6 13
REMARK SMILES IDX 31 14 5 15 32 16 37 17 4 18 3 19 38 20 2 21 39 22 1 23 33 24
REMARK SMILES IDX 34 25 35 26 36 27 17 28 18 30 19 31 29 32 20 33 22 34 21 35
REMARK SMILES IDX 23 36 24 37 28 38 25 39 27 40 26 41
REMARK H PARENT 8 11 17 29
ROOT
ATOM      1  C   UNL     1      36.085  -1.571  49.467  1.00  0.00     0.042 A 
ATOM      2  C   UNL     1      35.400  -2.778  49.261  1.00  0.00     0.014 A 
ATOM      3  C   UNL     1      34.012  -2.857  49.387  1.00  0.00     0.006 A 
ATOM      4  C   UNL     1      33.265  -1.766  49.803  1.00  0.00    -0.027 A 
ATOM      5  C   UNL     1      31.753  -1.869  49.944  1.00  0.00     0.046 C 
ATOM      6  C   UNL     1      33.952  -0.592  50.109  1.00  0.00     0.045 A 
ATOM      7  C   UNL     1      35.342  -0.526  49.952  1.00  0.00     0.040 A 
ENDROOT
BRANCH   1   8
ATOM      8  C   UNL     1      37.554  -1.427  49.478  1.00  0.00     0.255 C 
ATOM      9  O   UNL     1      37.980  -0.523  50.155  1.00  0.00    -0.269 OA
ATOM     10  N   UNL     1      38.253  -2.445  48.954  1.00  0.00    -0.322 N 
ATOM     11  H   UNL     1      37.713  -3.212  48.528  1.00  0.00     0.170 HD
BRANCH  10  12
ATOM     12  C   UNL     1      39.637  -2.560  48.935  1.00  0.00     0.044 A 
ATOM     13  C   UNL     1      40.386  -2.540  50.137  1.00  0.00     0.052 A 
ATOM     14  C   UNL     1      40.338  -2.578  47.709  1.00  0.00     0.039 A 
ATOM     15  C   UNL     1      41.778  -2.664  50.128  1.00  0.00     0.049 A 
ATOM     16  C   UNL     1      41.755  -2.727  47.703  1.00  0.00     0.060 A 
ATOM     17  C   UNL     1      42.451  -2.733  48.913  1.00  0.00     0.039 A 
BRANCH  15  18
ATOM     18  N   UNL     1      42.524  -2.688  51.316  1.00  0.00    -0.306 N 
ATOM     19  C   UNL     1      42.509  -3.631  52.342  1.00  0.00     0.116 A 
ATOM     20  C   UNL     1      43.357  -1.738  51.758  1.00  0.00     0.204 A 
ATOM     21  C   UNL     1      43.328  -3.199  53.325  1.00  0.00     0.056 A 
ATOM     22  N   UNL     1      43.874  -2.029  52.926  1.00  0.00    -0.242 NA
ATOM     23  C   UNL     1      43.654  -3.884  54.630  1.00  0.00     0.068 C 
ENDBRANCH  15  18
BRANCH  16  24
ATOM     24  C   UNL     1      42.466  -2.804  46.390  1.00  0.00     0.416 C 
ATOM     25  F   UNL     1      43.800  -2.623  46.454  1.00  0.00    -0.166 F 
ATOM     26  F   UNL     1      42.377  -4.022  45.870  1.00  0.00    -0.166 F 
ATOM     27  F   UNL     1      42.061  -1.846  45.531  1.00  0.00    -0.166 F 
ENDBRANCH  16  24
ENDBRANCH  10  12
ENDBRANCH   1   8
BRANCH   6  28
ATOM     28  N   UNL     1      33.209   0.565  50.373  1.00  0.00    -0.324 N 
ATOM     29  H   UNL     1      32.798   1.106  49.599  1.00  0.00     0.170 HD
BRANCH  28  30
ATOM     30  C   UNL     1      33.028   0.979  51.694  1.00  0.00     0.227 A 
ATOM     31  N   UNL     1      33.714   1.881  52.385  1.00  0.00    -0.221 NA
ATOM     32  N   UNL     1      32.035   0.224  52.231  1.00  0.00    -0.213 NA
ATOM     33  C   UNL     1      33.356   2.060  53.671  1.00  0.00     0.117 A 
ATOM     34  C   UNL     1      31.736   0.415  53.521  1.00  0.00     0.077 A 
ATOM     35  C   UNL     1      32.393   1.334  54.261  1.00  0.00     0.049 A 
BRANCH  34  36
ATOM     36  C   UNL     1      30.620  -0.410  54.051  1.00  0.00     0.019 A 
ATOM     37  C   UNL     1      29.532   0.169  54.724  1.00  0.00     0.013 A 
ATOM     38  C   UNL     1      30.632  -1.811  53.902  1.00  0.00     0.121 A 
ATOM     39  C   UNL     1      28.529  -0.654  55.219  1.00  0.00     0.021 A 
ATOM     40  N   UNL     1      29.673  -2.610  54.385  1.00  0.00    -0.264 NA
ATOM     41  C   UNL     1      28.632  -2.028  55.002  1.00  0.00     0.111 A 
ENDBRANCH  34  36
ENDBRANCH  28  30
ENDBRANCH   6  28
TORSDOF 7
ENDMDL
MODEL 15
REMARK VINA RESULT:   -10.566      5.707     10.810
REMARK INTER + INTRA:         -13.791
REMARK INTER:                 -12.654
REMARK INTRA:                  -1.137
REMARK CONF_INDEPENDENT:        2.088
REMARK UNBOUND:                -1.137
REMARK SMILES Cc1cn(-c2cc(NC(=O)c3ccc(C)c(Nc4nccc(-c5cccnc5)n4)c3)cc(C(F)(F)F)c2)cn1
REMARK SMILES IDX 11 1 12 2 13 3 14 4 15 5 16 6 30 7 9 8 10 9 8 10 7 12 6 13
REMARK SMILES IDX 31 14 5 15 32 16 37 17 4 18 3 19 38 20 2 21 39 22 1 23 33 24
REMARK SMILES IDX 34 25 35 26 36 27 17 28 18 30 19 31 29 32 20 33 22 34 21 35
REMARK SMILES IDX 23 36 24 37 28 38 25 39 27 40 26 41
REMARK H PARENT 8 11 17 29
ROOT
ATOM      1  C   UNL     1      22.384   6.480  55.243  1.00  0.00     0.042 A 
ATOM      2  C   UNL     1      21.665   7.628  54.877  1.00  0.00     0.014 A 
ATOM      3  C   UNL     1      21.210   8.537  55.833  1.00  0.00     0.006 A 
ATOM      4  C   UNL     1      21.380   8.300  57.188  1.00  0.00    -0.027 A 
ATOM      5  C   UNL     1      20.872   9.296  58.220  1.00  0.00     0.046 C 
ATOM      6  C   UNL     1      22.003   7.110  57.562  1.00  0.00     0.045 A 
ATOM      7  C   UNL     1      22.473   6.223  56.586  1.00  0.00     0.040 A 
ENDROOT
BRANCH   1   8
ATOM      8  C   UNL     1      22.790   5.407  54.314  1.00  0.00     0.255 C 
ATOM      9  O   UNL     1      21.890   4.729  53.881  1.00  0.00    -0.269 OA
ATOM     10  N   UNL     1      24.052   5.460  53.863  1.00  0.00    -0.322 N 
ATOM     11  H   UNL     1      24.655   6.201  54.249  1.00  0.00     0.170 HD
BRANCH  10  12
ATOM     12  C   UNL     1      24.620   4.608  52.925  1.00  0.00     0.044 A 
ATOM     13  C   UNL     1      23.880   4.170  51.799  1.00  0.00     0.052 A 
ATOM     14  C   UNL     1      25.906   4.063  53.135  1.00  0.00     0.039 A 
ATOM     15  C   UNL     1      24.446   3.320  50.844  1.00  0.00     0.049 A 
ATOM     16  C   UNL     1      26.489   3.216  52.150  1.00  0.00     0.060 A 
ATOM     17  C   UNL     1      25.734   2.833  51.039  1.00  0.00     0.039 A 
BRANCH  15  18
ATOM     18  N   UNL     1      23.736   2.914  49.704  1.00  0.00    -0.306 N 
ATOM     19  C   UNL     1      22.980   1.759  49.508  1.00  0.00     0.116 A 
ATOM     20  C   UNL     1      23.715   3.525  48.514  1.00  0.00     0.204 A 
ATOM     21  C   UNL     1      22.551   1.748  48.228  1.00  0.00     0.056 A 
ATOM     22  N   UNL     1      22.994   2.877  47.631  1.00  0.00    -0.242 NA
ATOM     23  C   UNL     1      21.685   0.716  47.547  1.00  0.00     0.068 C 
ENDBRANCH  15  18
BRANCH  16  24
ATOM     24  C   UNL     1      27.875   2.702  52.369  1.00  0.00     0.416 C 
ATOM     25  F   UNL     1      27.964   1.372  52.567  1.00  0.00    -0.166 F 
ATOM     26  F   UNL     1      28.623   2.870  51.285  1.00  0.00    -0.166 F 
ATOM     27  F   UNL     1      28.446   3.223  53.475  1.00  0.00    -0.166 F 
ENDBRANCH  16  24
ENDBRANCH  10  12
ENDBRANCH   1   8
BRANCH   6  28
ATOM     28  N   UNL     1      22.329   6.925  58.911  1.00  0.00    -0.324 N 
ATOM     29  H   UNL     1      21.794   6.262  59.489  1.00  0.00     0.170 HD
BRANCH  28  30
ATOM     30  C   UNL     1      23.388   7.646  59.467  1.00  0.00     0.227 A 
ATOM     31  N   UNL     1      23.651   8.944  59.374  1.00  0.00    -0.221 NA
ATOM     32  N   UNL     1      24.206   6.761  60.093  1.00  0.00    -0.213 NA
ATOM     33  C   UNL     1      24.774   9.378  59.976  1.00  0.00     0.117 A 
ATOM     34  C   UNL     1      25.327   7.236  60.649  1.00  0.00     0.077 A 
ATOM     35  C   UNL     1      25.629   8.551  60.597  1.00  0.00     0.049 A 
BRANCH  34  36
ATOM     36  C   UNL     1      26.169   6.233  61.352  1.00  0.00     0.019 A 
ATOM     37  C   UNL     1      26.401   6.308  62.735  1.00  0.00     0.013 A 
ATOM     38  C   UNL     1      26.775   5.181  60.638  1.00  0.00     0.121 A 
ATOM     39  C   UNL     1      27.218   5.357  63.334  1.00  0.00     0.021 A 
ATOM     40  N   UNL     1      27.570   4.267  61.208  1.00  0.00    -0.264 NA
ATOM     41  C   UNL     1      27.754   4.347  62.536  1.00  0.00     0.111 A 
ENDBRANCH  34  36
ENDBRANCH  28  30
ENDBRANCH   6  28
TORSDOF 7
ENDMDL
MODEL 16
REMARK VINA RESULT:   -10.510      3.921     10.989
REMARK INTER + INTRA:         -14.081
REMARK INTER:                 -12.598
REMARK INTRA:                  -1.483
REMARK CONF_INDEPENDENT:        2.088
REMARK UNBOUND:                -1.483
REMARK SMILES Cc1cn(-c2cc(NC(=O)c3ccc(C)c(Nc4nccc(-c5cccnc5)n4)c3)cc(C(F)(F)F)c2)cn1
REMARK SMILES IDX 11 1 12 2 13 3 14 4 15 5 16 6 30 7 9 8 10 9 8 10 7 12 6 13
REMARK SMILES IDX 31 14 5 15 32 16 37 17 4 18 3 19 38 20 2 21 39 22 1 23 33 24
REMARK SMILES IDX 34 25 35 26 36 27 17 28 18 30 19 31 29 32 20 33 22 34 21 35
REMARK SMILES IDX 23 36 24 37 28 38 25 39 27 40 26 41
REMARK H PARENT 8 11 17 29
ROOT
ATOM      1  C   UNL     1      25.441   3.868  51.903  1.00  0.00     0.042 A 
ATOM      2  C   UNL     1      24.753   4.237  50.737  1.00  0.00     0.014 A 
ATOM      3  C   UNL     1      23.435   4.693  50.784  1.00  0.00     0.006 A 
ATOM      4  C   UNL     1      22.726   4.720  51.975  1.00  0.00    -0.027 A 
ATOM      5  C   UNL     1      21.286   5.213  52.010  1.00  0.00     0.046 C 
ATOM      6  C   UNL     1      23.370   4.257  53.121  1.00  0.00     0.045 A 
ATOM      7  C   UNL     1      24.702   3.827  53.056  1.00  0.00     0.040 A 
ENDROOT
BRANCH   1   8
ATOM      8  C   UNL     1      26.785   3.258  51.932  1.00  0.00     0.255 C 
ATOM      9  O   UNL     1      27.290   3.067  50.853  1.00  0.00    -0.269 OA
ATOM     10  N   UNL     1      27.391   3.219  53.128  1.00  0.00    -0.322 N 
ATOM     11  H   UNL     1      26.850   3.554  53.937  1.00  0.00     0.170 HD
BRANCH  10  12
ATOM     12  C   UNL     1      28.682   2.769  53.374  1.00  0.00     0.044 A 
ATOM     13  C   UNL     1      29.254   1.738  52.589  1.00  0.00     0.052 A 
ATOM     14  C   UNL     1      29.408   3.245  54.487  1.00  0.00     0.039 A 
ATOM     15  C   UNL     1      30.556   1.285  52.822  1.00  0.00     0.049 A 
ATOM     16  C   UNL     1      30.742   2.798  54.710  1.00  0.00     0.060 A 
ATOM     17  C   UNL     1      31.279   1.801  53.893  1.00  0.00     0.039 A 
BRANCH  15  18
ATOM     18  N   UNL     1      31.147   0.294  52.024  1.00  0.00    -0.306 N 
ATOM     19  C   UNL     1      32.490  -0.064  51.923  1.00  0.00     0.116 A 
ATOM     20  C   UNL     1      30.536  -0.467  51.108  1.00  0.00     0.204 A 
ATOM     21  C   UNL     1      32.604  -1.011  50.966  1.00  0.00     0.056 A 
ATOM     22  N   UNL     1      31.366  -1.272  50.492  1.00  0.00    -0.242 NA
ATOM     23  C   UNL     1      33.854  -1.722  50.508  1.00  0.00     0.068 C 
ENDBRANCH  15  18
BRANCH  16  24
ATOM     24  C   UNL     1      31.509   3.363  55.861  1.00  0.00     0.416 C 
ATOM     25  F   UNL     1      30.900   4.376  56.509  1.00  0.00    -0.166 F 
ATOM     26  F   UNL     1      31.650   2.464  56.828  1.00  0.00    -0.166 F 
ATOM     27  F   UNL     1      32.687   3.898  55.480  1.00  0.00    -0.166 F 
ENDBRANCH  16  24
ENDBRANCH  10  12
ENDBRANCH   1   8
BRANCH   6  28
ATOM     28  N   UNL     1      22.735   4.426  54.357  1.00  0.00    -0.324 N 
ATOM     29  H   UNL     1      22.277   3.628  54.819  1.00  0.00     0.170 HD
BRANCH  28  30
ATOM     30  C   UNL     1      22.727   5.686  54.959  1.00  0.00     0.227 A 
ATOM     31  N   UNL     1      21.797   6.631  54.900  1.00  0.00    -0.221 NA
ATOM     32  N   UNL     1      23.917   5.848  55.592  1.00  0.00    -0.213 NA
ATOM     33  C   UNL     1      22.063   7.783  55.544  1.00  0.00     0.117 A 
ATOM     34  C   UNL     1      24.149   7.022  56.191  1.00  0.00     0.077 A 
ATOM     35  C   UNL     1      23.227   8.008  56.174  1.00  0.00     0.049 A 
BRANCH  34  36
ATOM     36  C   UNL     1      25.451   7.135  56.899  1.00  0.00     0.019 A 
ATOM     37  C   UNL     1      25.581   7.880  58.082  1.00  0.00     0.013 A 
ATOM     38  C   UNL     1      26.601   6.505  56.387  1.00  0.00     0.121 A 
ATOM     39  C   UNL     1      26.828   7.972  58.688  1.00  0.00     0.021 A 
ATOM     40  N   UNL     1      27.807   6.596  56.962  1.00  0.00    -0.264 NA
ATOM     41  C   UNL     1      27.898   7.294  58.106  1.00  0.00     0.111 A 
ENDBRANCH  34  36
ENDBRANCH  28  30
ENDBRANCH   6  28
TORSDOF 7
ENDMDL
MODEL 17
REMARK VINA RESULT:   -10.347      4.342     10.787
REMARK INTER + INTRA:         -13.605
REMARK INTER:                 -12.435
REMARK INTRA:                  -1.170
REMARK CONF_INDEPENDENT:        2.088
REMARK UNBOUND:                -1.170
REMARK SMILES Cc1cn(-c2cc(NC(=O)c3ccc(C)c(Nc4nccc(-c5cccnc5)n4)c3)cc(C(F)(F)F)c2)cn1
REMARK SMILES IDX 11 1 12 2 13 3 14 4 15 5 16 6 30 7 9 8 10 9 8 10 7 12 6 13
REMARK SMILES IDX 31 14 5 15 32 16 37 17 4 18 3 19 38 20 2 21 39 22 1 23 33 24
REMARK SMILES IDX 34 25 35 26 36 27 17 28 18 30 19 31 29 32 20 33 22 34 21 35
REMARK SMILES IDX 23 36 24 37 28 38 25 39 27 40 26 41
REMARK H PARENT 8 11 17 29
ROOT
ATOM      1  C   UNL     1      22.337   6.654  55.244  1.00  0.00     0.042 A 
ATOM      2  C   UNL     1      21.567   7.789  54.949  1.00  0.00     0.014 A 
ATOM      3  C   UNL     1      21.103   8.634  55.958  1.00  0.00     0.006 A 
ATOM      4  C   UNL     1      21.314   8.340  57.296  1.00  0.00    -0.027 A 
ATOM      5  C   UNL     1      20.796   9.267  58.386  1.00  0.00     0.046 C 
ATOM      6  C   UNL     1      21.990   7.159  57.598  1.00  0.00     0.045 A 
ATOM      7  C   UNL     1      22.469   6.337  56.571  1.00  0.00     0.040 A 
ENDROOT
BRANCH   1   8
ATOM      8  C   UNL     1      22.759   5.641  54.256  1.00  0.00     0.255 C 
ATOM      9  O   UNL     1      21.926   4.817  53.970  1.00  0.00    -0.269 OA
ATOM     10  N   UNL     1      23.907   5.890  53.607  1.00  0.00    -0.322 N 
ATOM     11  H   UNL     1      24.434   6.727  53.894  1.00  0.00     0.170 HD
BRANCH  10  12
ATOM     12  C   UNL     1      24.449   5.122  52.584  1.00  0.00     0.044 A 
ATOM     13  C   UNL     1      25.516   4.224  52.837  1.00  0.00     0.052 A 
ATOM     14  C   UNL     1      24.031   5.307  51.249  1.00  0.00     0.039 A 
ATOM     15  C   UNL     1      26.062   3.440  51.816  1.00  0.00     0.049 A 
ATOM     16  C   UNL     1      24.573   4.492  50.214  1.00  0.00     0.060 A 
ATOM     17  C   UNL     1      25.603   3.597  50.512  1.00  0.00     0.039 A 
BRANCH  15  18
ATOM     18  N   UNL     1      27.090   2.518  52.064  1.00  0.00    -0.306 N 
ATOM     19  C   UNL     1      28.204   2.218  51.282  1.00  0.00     0.116 A 
ATOM     20  C   UNL     1      27.162   1.653  53.083  1.00  0.00     0.204 A 
ATOM     21  C   UNL     1      28.874   1.205  51.874  1.00  0.00     0.056 A 
ATOM     22  N   UNL     1      28.224   0.888  53.016  1.00  0.00    -0.242 NA
ATOM     23  C   UNL     1      30.152   0.545  51.417  1.00  0.00     0.068 C 
ENDBRANCH  15  18
BRANCH  16  24
ATOM     24  C   UNL     1      24.069   4.667  48.819  1.00  0.00     0.416 C 
ATOM     25  F   UNL     1      22.817   5.159  48.723  1.00  0.00    -0.166 F 
ATOM     26  F   UNL     1      24.775   5.585  48.168  1.00  0.00    -0.166 F 
ATOM     27  F   UNL     1      23.999   3.499  48.148  1.00  0.00    -0.166 F 
ENDBRANCH  16  24
ENDBRANCH  10  12
ENDBRANCH   1   8
BRANCH   6  28
ATOM     28  N   UNL     1      22.357   6.923  58.930  1.00  0.00    -0.324 N 
ATOM     29  H   UNL     1      21.853   6.222  59.491  1.00  0.00     0.170 HD
BRANCH  28  30
ATOM     30  C   UNL     1      23.412   7.646  59.489  1.00  0.00     0.227 A 
ATOM     31  N   UNL     1      23.668   8.945  59.405  1.00  0.00    -0.221 NA
ATOM     32  N   UNL     1      24.235   6.761  60.109  1.00  0.00    -0.213 NA
ATOM     33  C   UNL     1      24.790   9.381  60.009  1.00  0.00     0.117 A 
ATOM     34  C   UNL     1      25.354   7.237  60.667  1.00  0.00     0.077 A 
ATOM     35  C   UNL     1      25.650   8.554  60.624  1.00  0.00     0.049 A 
BRANCH  34  36
ATOM     36  C   UNL     1      26.202   6.234  61.363  1.00  0.00     0.019 A 
ATOM     37  C   UNL     1      26.400   6.275  62.752  1.00  0.00     0.013 A 
ATOM     38  C   UNL     1      26.847   5.215  60.635  1.00  0.00     0.121 A 
ATOM     39  C   UNL     1      27.223   5.327  63.345  1.00  0.00     0.021 A 
ATOM     40  N   UNL     1      27.648   4.302  61.200  1.00  0.00    -0.264 NA
ATOM     41  C   UNL     1      27.799   4.350  62.534  1.00  0.00     0.111 A 
ENDBRANCH  34  36
ENDBRANCH  28  30
ENDBRANCH   6  28
TORSDOF 7
ENDMDL
MODEL 18
REMARK VINA RESULT:   -10.322      5.233      8.088
REMARK INTER + INTRA:         -13.601
REMARK INTER:                 -12.410
REMARK INTRA:                  -1.190
REMARK CONF_INDEPENDENT:        2.088
REMARK UNBOUND:                -1.190
REMARK SMILES Cc1cn(-c2cc(NC(=O)c3ccc(C)c(Nc4nccc(-c5cccnc5)n4)c3)cc(C(F)(F)F)c2)cn1
REMARK SMILES IDX 11 1 12 2 13 3 14 4 15 5 16 6 30 7 9 8 10 9 8 10 7 12 6 13
REMARK SMILES IDX 31 14 5 15 32 16 37 17 4 18 3 19 38 20 2 21 39 22 1 23 33 24
REMARK SMILES IDX 34 25 35 26 36 27 17 28 18 30 19 31 29 32 20 33 22 34 21 35
REMARK SMILES IDX 23 36 24 37 28 38 25 39 27 40 26 41
REMARK H PARENT 8 11 17 29
ROOT
ATOM      1  C   UNL     1      24.404   6.032  54.144  1.00  0.00     0.042 A 
ATOM      2  C   UNL     1      23.793   6.677  53.058  1.00  0.00     0.014 A 
ATOM      3  C   UNL     1      23.669   6.051  51.817  1.00  0.00     0.006 A 
ATOM      4  C   UNL     1      24.217   4.800  51.586  1.00  0.00    -0.027 A 
ATOM      5  C   UNL     1      24.080   4.132  50.225  1.00  0.00     0.046 C 
ATOM      6  C   UNL     1      24.915   4.197  52.631  1.00  0.00     0.045 A 
ATOM      7  C   UNL     1      25.007   4.831  53.876  1.00  0.00     0.040 A 
ENDROOT
BRANCH   1   8
ATOM      8  C   UNL     1      24.690   6.663  55.448  1.00  0.00     0.255 C 
ATOM      9  O   UNL     1      25.589   7.468  55.448  1.00  0.00    -0.269 OA
ATOM     10  N   UNL     1      23.778   6.469  56.412  1.00  0.00    -0.322 N 
ATOM     11  H   UNL     1      22.989   5.845  56.191  1.00  0.00     0.170 HD
BRANCH  10  12
ATOM     12  C   UNL     1      23.800   7.032  57.682  1.00  0.00     0.044 A 
ATOM     13  C   UNL     1      24.736   6.597  58.654  1.00  0.00     0.052 A 
ATOM     14  C   UNL     1      22.814   7.964  58.071  1.00  0.00     0.039 A 
ATOM     15  C   UNL     1      24.772   7.165  59.930  1.00  0.00     0.049 A 
ATOM     16  C   UNL     1      22.867   8.557  59.365  1.00  0.00     0.060 A 
ATOM     17  C   UNL     1      23.825   8.121  60.283  1.00  0.00     0.039 A 
BRANCH  15  18
ATOM     18  N   UNL     1      25.722   6.771  60.886  1.00  0.00    -0.306 N 
ATOM     19  C   UNL     1      26.013   5.492  61.355  1.00  0.00     0.116 A 
ATOM     20  C   UNL     1      26.495   7.575  61.625  1.00  0.00     0.204 A 
ATOM     21  C   UNL     1      26.938   5.601  62.333  1.00  0.00     0.056 A 
ATOM     22  N   UNL     1      27.250   6.910  62.465  1.00  0.00    -0.242 NA
ATOM     23  C   UNL     1      27.583   4.494  63.131  1.00  0.00     0.068 C 
ENDBRANCH  15  18
BRANCH  16  24
ATOM     24  C   UNL     1      21.846   9.586  59.730  1.00  0.00     0.416 C 
ATOM     25  F   UNL     1      20.777   9.114  60.401  1.00  0.00    -0.166 F 
ATOM     26  F   UNL     1      22.343  10.468  60.589  1.00  0.00    -0.166 F 
ATOM     27  F   UNL     1      21.301  10.174  58.645  1.00  0.00    -0.166 F 
ENDBRANCH  16  24
ENDBRANCH  10  12
ENDBRANCH   1   8
BRANCH   6  28
ATOM     28  N   UNL     1      25.336   2.870  52.473  1.00  0.00    -0.324 N 
ATOM     29  H   UNL     1      24.663   2.097  52.574  1.00  0.00     0.170 HD
BRANCH  28  30
ATOM     30  C   UNL     1      26.675   2.604  52.179  1.00  0.00     0.227 A 
ATOM     31  N   UNL     1      27.477   3.221  51.320  1.00  0.00    -0.221 NA
ATOM     32  N   UNL     1      27.042   1.506  52.889  1.00  0.00    -0.213 NA
ATOM     33  C   UNL     1      28.725   2.729  51.197  1.00  0.00     0.117 A 
ATOM     34  C   UNL     1      28.282   1.036  52.709  1.00  0.00     0.077 A 
ATOM     35  C   UNL     1      29.141   1.639  51.859  1.00  0.00     0.049 A 
BRANCH  34  36
ATOM     36  C   UNL     1      28.646  -0.146  53.533  1.00  0.00     0.019 A 
ATOM     37  C   UNL     1      27.881  -0.531  54.646  1.00  0.00     0.013 A 
ATOM     38  C   UNL     1      29.790  -0.908  53.225  1.00  0.00     0.121 A 
ATOM     39  C   UNL     1      28.283  -1.629  55.395  1.00  0.00     0.021 A 
ATOM     40  N   UNL     1      30.187  -1.963  53.948  1.00  0.00    -0.264 NA
ATOM     41  C   UNL     1      29.423  -2.325  54.991  1.00  0.00     0.111 A 
ENDBRANCH  34  36
ENDBRANCH  28  30
ENDBRANCH   6  28
TORSDOF 7
ENDMDL
MODEL 19
REMARK VINA RESULT:   -10.251      8.411     14.876
REMARK INTER + INTRA:         -13.667
REMARK INTER:                 -12.340
REMARK INTRA:                  -1.327
REMARK CONF_INDEPENDENT:        2.088
REMARK UNBOUND:                -1.327
REMARK SMILES Cc1cn(-c2cc(NC(=O)c3ccc(C)c(Nc4nccc(-c5cccnc5)n4)c3)cc(C(F)(F)F)c2)cn1
REMARK SMILES IDX 11 1 12 2 13 3 14 4 15 5 16 6 30 7 9 8 10 9 8 10 7 12 6 13
REMARK SMILES IDX 31 14 5 15 32 16 37 17 4 18 3 19 38 20 2 21 39 22 1 23 33 24
REMARK SMILES IDX 34 25 35 26 36 27 17 28 18 30 19 31 29 32 20 33 22 34 21 35
REMARK SMILES IDX 23 36 24 37 28 38 25 39 27 40 26 41
REMARK H PARENT 8 11 17 29
ROOT
ATOM      1  C   UNL     1      36.013  -1.575  49.165  1.00  0.00     0.042 A 
ATOM      2  C   UNL     1      35.313  -2.789  49.089  1.00  0.00     0.014 A 
ATOM      3  C   UNL     1      33.951  -2.862  49.386  1.00  0.00     0.006 A 
ATOM      4  C   UNL     1      33.256  -1.757  49.849  1.00  0.00    -0.027 A 
ATOM      5  C   UNL     1      31.773  -1.854  50.177  1.00  0.00     0.046 C 
ATOM      6  C   UNL     1      33.970  -0.573  50.027  1.00  0.00     0.045 A 
ATOM      7  C   UNL     1      35.331  -0.513  49.699  1.00  0.00     0.040 A 
ENDROOT
BRANCH   1   8
ATOM      8  C   UNL     1      37.472  -1.431  48.993  1.00  0.00     0.255 C 
ATOM      9  O   UNL     1      38.070  -1.021  49.958  1.00  0.00    -0.269 OA
ATOM     10  N   UNL     1      37.997  -1.998  47.896  1.00  0.00    -0.322 N 
ATOM     11  H   UNL     1      37.339  -2.428  47.232  1.00  0.00     0.170 HD
BRANCH  10  12
ATOM     12  C   UNL     1      39.347  -2.057  47.575  1.00  0.00     0.044 A 
ATOM     13  C   UNL     1      40.105  -0.873  47.398  1.00  0.00     0.052 A 
ATOM     14  C   UNL     1      39.966  -3.296  47.300  1.00  0.00     0.039 A 
ATOM     15  C   UNL     1      41.467  -0.923  47.085  1.00  0.00     0.049 A 
ATOM     16  C   UNL     1      41.358  -3.346  47.003  1.00  0.00     0.060 A 
ATOM     17  C   UNL     1      42.075  -2.155  46.867  1.00  0.00     0.039 A 
BRANCH  15  18
ATOM     18  N   UNL     1      42.235   0.243  46.949  1.00  0.00    -0.306 N 
ATOM     19  C   UNL     1      42.341   1.329  47.815  1.00  0.00     0.116 A 
ATOM     20  C   UNL     1      42.972   0.597  45.889  1.00  0.00     0.204 A 
ATOM     21  C   UNL     1      43.129   2.259  47.233  1.00  0.00     0.056 A 
ATOM     22  N   UNL     1      43.540   1.768  46.043  1.00  0.00    -0.242 NA
ATOM     23  C   UNL     1      43.553   3.597  47.789  1.00  0.00     0.068 C 
ENDBRANCH  15  18
BRANCH  16  24
ATOM     24  C   UNL     1      42.000  -4.676  46.776  1.00  0.00     0.416 C 
ATOM     25  F   UNL     1      42.233  -5.394  47.892  1.00  0.00    -0.166 F 
ATOM     26  F   UNL     1      41.197  -5.483  46.092  1.00  0.00    -0.166 F 
ATOM     27  F   UNL     1      43.221  -4.566  46.213  1.00  0.00    -0.166 F 
ENDBRANCH  16  24
ENDBRANCH  10  12
ENDBRANCH   1   8
BRANCH   6  28
ATOM     28  N   UNL     1      33.260   0.594  50.337  1.00  0.00    -0.324 N 
ATOM     29  H   UNL     1      32.846   1.165  49.586  1.00  0.00     0.170 HD
BRANCH  28  30
ATOM     30  C   UNL     1      33.117   0.977  51.672  1.00  0.00     0.227 A 
ATOM     31  N   UNL     1      33.850   1.830  52.376  1.00  0.00    -0.221 NA
ATOM     32  N   UNL     1      32.102   0.248  52.203  1.00  0.00    -0.213 NA
ATOM     33  C   UNL     1      33.519   1.986  53.672  1.00  0.00     0.117 A 
ATOM     34  C   UNL     1      31.831   0.414  53.503  1.00  0.00     0.077 A 
ATOM     35  C   UNL     1      32.536   1.283  54.258  1.00  0.00     0.049 A 
BRANCH  34  36
ATOM     36  C   UNL     1      30.689  -0.380  54.028  1.00  0.00     0.019 A 
ATOM     37  C   UNL     1      29.611   0.230  54.689  1.00  0.00     0.013 A 
ATOM     38  C   UNL     1      30.668  -1.782  53.886  1.00  0.00     0.121 A 
ATOM     39  C   UNL     1      28.584  -0.565  55.180  1.00  0.00     0.021 A 
ATOM     40  N   UNL     1      29.684  -2.554  54.365  1.00  0.00    -0.264 NA
ATOM     41  C   UNL     1      28.653  -1.942  54.970  1.00  0.00     0.111 A 
ENDBRANCH  34  36
ENDBRANCH  28  30
ENDBRANCH   6  28
TORSDOF 7
ENDMDL
MODEL 20
REMARK VINA RESULT:    -9.647      4.114     10.438
REMARK INTER + INTRA:         -13.655
REMARK INTER:                 -11.735
REMARK INTRA:                  -1.920
REMARK CONF_INDEPENDENT:        2.088
REMARK UNBOUND:                -1.920
REMARK SMILES Cc1cn(-c2cc(NC(=O)c3ccc(C)c(Nc4nccc(-c5cccnc5)n4)c3)cc(C(F)(F)F)c2)cn1
REMARK SMILES IDX 11 1 12 2 13 3 14 4 15 5 16 6 30 7 9 8 10 9 8 10 7 12 6 13
REMARK SMILES IDX 31 14 5 15 32 16 37 17 4 18 3 19 38 20 2 21 39 22 1 23 33 24
REMARK SMILES IDX 34 25 35 26 36 27 17 28 18 30 19 31 29 32 20 33 22 34 21 35
REMARK SMILES IDX 23 36 24 37 28 38 25 39 27 40 26 41
REMARK H PARENT 8 11 17 29
ROOT
ATOM      1  C   UNL     1      21.577   7.107  53.834  1.00  0.00     0.042 A 
ATOM      2  C   UNL     1      21.135   8.396  53.499  1.00  0.00     0.014 A 
ATOM      3  C   UNL     1      20.534   9.227  54.446  1.00  0.00     0.006 A 
ATOM      4  C   UNL     1      20.275   8.781  55.732  1.00  0.00    -0.027 A 
ATOM      5  C   UNL     1      19.612   9.696  56.752  1.00  0.00     0.046 C 
ATOM      6  C   UNL     1      20.617   7.466  56.041  1.00  0.00     0.045 A 
ATOM      7  C   UNL     1      21.242   6.656  55.084  1.00  0.00     0.040 A 
ENDROOT
BRANCH   1   8
ATOM      8  C   UNL     1      22.104   6.120  52.871  1.00  0.00     0.255 C 
ATOM      9  O   UNL     1      21.308   5.709  52.063  1.00  0.00    -0.269 OA
ATOM     10  N   UNL     1      23.437   5.980  52.837  1.00  0.00    -0.322 N 
ATOM     11  H   UNL     1      23.982   6.519  53.526  1.00  0.00     0.170 HD
BRANCH  10  12
ATOM     12  C   UNL     1      24.152   5.175  51.959  1.00  0.00     0.044 A 
ATOM     13  C   UNL     1      25.266   4.422  52.404  1.00  0.00     0.052 A 
ATOM     14  C   UNL     1      23.858   5.184  50.577  1.00  0.00     0.039 A 
ATOM     15  C   UNL     1      25.984   3.602  51.530  1.00  0.00     0.049 A 
ATOM     16  C   UNL     1      24.577   4.331  49.692  1.00  0.00     0.060 A 
ATOM     17  C   UNL     1      25.650   3.581  50.180  1.00  0.00     0.039 A 
BRANCH  15  18
ATOM     18  N   UNL     1      27.062   2.820  51.970  1.00  0.00    -0.306 N 
ATOM     19  C   UNL     1      27.312   2.310  53.243  1.00  0.00     0.116 A 
ATOM     20  C   UNL     1      28.143   2.472  51.261  1.00  0.00     0.204 A 
ATOM     21  C   UNL     1      28.512   1.689  53.221  1.00  0.00     0.056 A 
ATOM     22  N   UNL     1      29.000   1.774  51.964  1.00  0.00    -0.242 NA
ATOM     23  C   UNL     1      29.205   0.967  54.352  1.00  0.00     0.068 C 
ENDBRANCH  15  18
BRANCH  16  24
ATOM     24  C   UNL     1      24.205   4.315  48.245  1.00  0.00     0.416 C 
ATOM     25  F   UNL     1      22.932   4.668  47.980  1.00  0.00    -0.166 F 
ATOM     26  F   UNL     1      24.891   5.227  47.566  1.00  0.00    -0.166 F 
ATOM     27  F   UNL     1      24.308   3.084  47.703  1.00  0.00    -0.166 F 
ENDBRANCH  16  24
ENDBRANCH  10  12
ENDBRANCH   1   8
BRANCH   6  28
ATOM     28  N   UNL     1      20.515   7.046  57.373  1.00  0.00    -0.324 N 
ATOM     29  H   UNL     1      19.668   6.560  57.701  1.00  0.00     0.170 HD
BRANCH  28  30
ATOM     30  C   UNL     1      21.570   7.292  58.254  1.00  0.00     0.227 A 
ATOM     31  N   UNL     1      21.525   7.730  59.506  1.00  0.00    -0.221 NA
ATOM     32  N   UNL     1      22.729   7.077  57.579  1.00  0.00    -0.213 NA
ATOM     33  C   UNL     1      22.707   7.925  60.122  1.00  0.00     0.117 A 
ATOM     34  C   UNL     1      23.877   7.315  58.222  1.00  0.00     0.077 A 
ATOM     35  C   UNL     1      23.884   7.745  59.502  1.00  0.00     0.049 A 
BRANCH  34  36
ATOM     36  C   UNL     1      25.116   7.032  57.452  1.00  0.00     0.019 A 
ATOM     37  C   UNL     1      25.097   6.887  56.055  1.00  0.00     0.013 A 
ATOM     38  C   UNL     1      26.351   6.884  58.113  1.00  0.00     0.121 A 
ATOM     39  C   UNL     1      26.282   6.597  55.391  1.00  0.00     0.021 A 
ATOM     40  N   UNL     1      27.495   6.597  57.478  1.00  0.00    -0.264 NA
ATOM     41  C   UNL     1      27.452   6.489  56.140  1.00  0.00     0.111 A 
ENDBRANCH  34  36
ENDBRANCH  28  30
ENDBRANCH   6  28
TORSDOF 7
ENDMDL
