MODEL 1
REMARK VINA RESULT:   -15.152      0.000      0.000
REMARK INTER + INTRA:         -18.421
REMARK INTER:                 -17.240
REMARK INTRA:                  -1.181
REMARK CONF_INDEPENDENT:        2.088
REMARK UNBOUND:                -1.181
REMARK SMILES Cc1cn(-c2cc(NC(=O)c3ccc(C)c(Nc4nccc(-c5cccnc5)n4)c3)cc(C(F)(F)F)c2)cn1
REMARK SMILES IDX 11 1 12 2 13 3 14 4 15 5 16 6 30 7 9 8 10 9 8 10 7 12 6 13
REMARK SMILES IDX 31 14 5 15 32 16 37 17 4 18 3 19 38 20 2 21 39 22 1 23 33 24
REMARK SMILES IDX 34 25 35 26 36 27 17 28 18 30 19 31 29 32 20 33 22 34 21 35
REMARK SMILES IDX 23 36 24 37 28 38 25 39 27 40 26 41
REMARK H PARENT 8 11 17 29
ROOT
ATOM      1  C   UNL     1      27.977   1.858  53.224  1.00  0.00     0.042 A 
ATOM      2  C   UNL     1      27.697   1.347  54.500  1.00  0.00     0.014 A 
ATOM      3  C   UNL     1      28.418   0.275  55.028  1.00  0.00     0.006 A 
ATOM      4  C   UNL     1      29.381  -0.382  54.279  1.00  0.00    -0.027 A 
ATOM      5  C   UNL     1      30.154  -1.555  54.865  1.00  0.00     0.046 C 
ATOM      6  C   UNL     1      29.591   0.055  52.972  1.00  0.00     0.045 A 
ATOM      7  C   UNL     1      28.875   1.149  52.469  1.00  0.00     0.040 A 
ENDROOT
BRANCH   1   8
ATOM      8  C   UNL     1      27.186   2.900  52.540  1.00  0.00     0.255 C 
ATOM      9  O   UNL     1      27.532   3.158  51.413  1.00  0.00    -0.269 OA
ATOM     10  N   UNL     1      26.038   3.257  53.136  1.00  0.00    -0.322 N 
ATOM     11  H   UNL     1      25.832   2.829  54.049  1.00  0.00     0.170 HD
BRANCH  10  12
ATOM     12  C   UNL     1      25.102   4.152  52.633  1.00  0.00     0.044 A 
ATOM     13  C   UNL     1      24.177   4.797  53.492  1.00  0.00     0.052 A 
ATOM     14  C   UNL     1      24.971   4.348  51.241  1.00  0.00     0.039 A 
ATOM     15  C   UNL     1      23.238   5.706  52.997  1.00  0.00     0.049 A 
ATOM     16  C   UNL     1      24.029   5.291  50.740  1.00  0.00     0.060 A 
ATOM     17  C   UNL     1      23.156   5.928  51.626  1.00  0.00     0.039 A 
BRANCH  15  18
ATOM     18  N   UNL     1      22.347   6.381  53.844  1.00  0.00    -0.306 N 
ATOM     19  C   UNL     1      22.037   6.118  55.177  1.00  0.00     0.116 A 
ATOM     20  C   UNL     1      21.525   7.382  53.508  1.00  0.00     0.204 A 
ATOM     21  C   UNL     1      21.062   6.971  55.560  1.00  0.00     0.056 A 
ATOM     22  N   UNL     1      20.778   7.775  54.511  1.00  0.00    -0.242 NA
ATOM     23  C   UNL     1      20.409   7.088  56.916  1.00  0.00     0.068 C 
ENDBRANCH  15  18
BRANCH  16  24
ATOM     24  C   UNL     1      23.954   5.523  49.266  1.00  0.00     0.416 C 
ATOM     25  F   UNL     1      24.675   6.569  48.816  1.00  0.00    -0.166 F 
ATOM     26  F   UNL     1      24.491   4.510  48.596  1.00  0.00    -0.166 F 
ATOM     27  F   UNL     1      22.701   5.806  48.855  1.00  0.00    -0.166 F 
ENDBRANCH  16  24
ENDBRANCH  10  12
ENDBRANCH   1   8
BRANCH   6  28
ATOM     28  N   UNL     1      30.667  -0.483  52.254  1.00  0.00    -0.324 N 
ATOM     29  H   UNL     1      30.525  -1.295  51.636  1.00  0.00     0.170 HD
BRANCH  28  30
ATOM     30  C   UNL     1      31.934   0.089  52.383  1.00  0.00     0.227 A 
ATOM     31  N   UNL     1      32.331   1.056  53.201  1.00  0.00    -0.221 NA
ATOM     32  N   UNL     1      32.736  -0.467  51.439  1.00  0.00    -0.213 NA
ATOM     33  C   UNL     1      33.612   1.456  53.088  1.00  0.00     0.117 A 
ATOM     34  C   UNL     1      33.991  -0.015  51.344  1.00  0.00     0.077 A 
ATOM     35  C   UNL     1      34.448   0.955  52.166  1.00  0.00     0.049 A 
BRANCH  34  36
ATOM     36  C   UNL     1      34.838  -0.680  50.320  1.00  0.00     0.019 A 
ATOM     37  C   UNL     1      36.137  -0.230  50.034  1.00  0.00     0.013 A 
ATOM     38  C   UNL     1      34.348  -1.782  49.592  1.00  0.00     0.121 A 
ATOM     39  C   UNL     1      36.873  -0.875  49.049  1.00  0.00     0.021 A 
ATOM     40  N   UNL     1      35.050  -2.403  48.636  1.00  0.00    -0.264 NA
ATOM     41  C   UNL     1      36.298  -1.968  48.401  1.00  0.00     0.111 A 
ENDBRANCH  34  36
ENDBRANCH  28  30
ENDBRANCH   6  28
TORSDOF 7
ENDMDL
MODEL 2
REMARK VINA RESULT:   -13.921      2.282      3.584
REMARK INTER + INTRA:         -17.243
REMARK INTER:                 -16.009
REMARK INTRA:                  -1.234
REMARK CONF_INDEPENDENT:        2.088
REMARK UNBOUND:                -1.234
REMARK SMILES Cc1cn(-c2cc(NC(=O)c3ccc(C)c(Nc4nccc(-c5cccnc5)n4)c3)cc(C(F)(F)F)c2)cn1
REMARK SMILES IDX 11 1 12 2 13 3 14 4 15 5 16 6 30 7 9 8 10 9 8 10 7 12 6 13
REMARK SMILES IDX 31 14 5 15 32 16 37 17 4 18 3 19 38 20 2 21 39 22 1 23 33 24
REMARK SMILES IDX 34 25 35 26 36 27 17 28 18 30 19 31 29 32 20 33 22 34 21 35
REMARK SMILES IDX 23 36 24 37 28 38 25 39 27 40 26 41
REMARK H PARENT 8 11 17 29
ROOT
ATOM      1  C   UNL     1      28.281   1.617  53.453  1.00  0.00     0.042 A 
ATOM      2  C   UNL     1      27.973   0.944  54.645  1.00  0.00     0.014 A 
ATOM      3  C   UNL     1      28.662  -0.207  55.029  1.00  0.00     0.006 A 
ATOM      4  C   UNL     1      29.621  -0.779  54.207  1.00  0.00    -0.027 A 
ATOM      5  C   UNL     1      30.359  -2.039  54.635  1.00  0.00     0.046 C 
ATOM      6  C   UNL     1      29.858  -0.173  52.974  1.00  0.00     0.045 A 
ATOM      7  C   UNL     1      29.174   0.996  52.619  1.00  0.00     0.040 A 
ENDROOT
BRANCH   1   8
ATOM      8  C   UNL     1      27.523   2.761  52.910  1.00  0.00     0.255 C 
ATOM      9  O   UNL     1      27.914   3.186  51.851  1.00  0.00    -0.269 OA
ATOM     10  N   UNL     1      26.356   3.036  53.511  1.00  0.00    -0.322 N 
ATOM     11  H   UNL     1      26.113   2.474  54.339  1.00  0.00     0.170 HD
BRANCH  10  12
ATOM     12  C   UNL     1      25.445   4.008  53.118  1.00  0.00     0.044 A 
ATOM     13  C   UNL     1      25.093   4.167  51.755  1.00  0.00     0.052 A 
ATOM     14  C   UNL     1      24.941   4.939  54.053  1.00  0.00     0.039 A 
ATOM     15  C   UNL     1      24.171   5.136  51.351  1.00  0.00     0.049 A 
ATOM     16  C   UNL     1      23.984   5.911  53.643  1.00  0.00     0.060 A 
ATOM     17  C   UNL     1      23.643   6.014  52.293  1.00  0.00     0.039 A 
BRANCH  15  18
ATOM     18  N   UNL     1      23.784   5.274  50.010  1.00  0.00    -0.306 N 
ATOM     19  C   UNL     1      22.540   5.623  49.488  1.00  0.00     0.116 A 
ATOM     20  C   UNL     1      24.527   5.003  48.930  1.00  0.00     0.204 A 
ATOM     21  C   UNL     1      22.610   5.546  48.141  1.00  0.00     0.056 A 
ATOM     22  N   UNL     1      23.871   5.188  47.811  1.00  0.00    -0.242 NA
ATOM     23  C   UNL     1      21.525   5.847  47.136  1.00  0.00     0.068 C 
ENDBRANCH  15  18
BRANCH  16  24
ATOM     24  C   UNL     1      23.422   6.845  54.666  1.00  0.00     0.416 C 
ATOM     25  F   UNL     1      24.190   7.024  55.758  1.00  0.00    -0.166 F 
ATOM     26  F   UNL     1      23.334   8.080  54.186  1.00  0.00    -0.166 F 
ATOM     27  F   UNL     1      22.252   6.405  55.174  1.00  0.00    -0.166 F 
ENDBRANCH  16  24
ENDBRANCH  10  12
ENDBRANCH   1   8
BRANCH   6  28
ATOM     28  N   UNL     1      30.931  -0.635  52.201  1.00  0.00    -0.324 N 
ATOM     29  H   UNL     1      30.807  -1.434  51.564  1.00  0.00     0.170 HD
BRANCH  28  30
ATOM     30  C   UNL     1      32.172  -0.001  52.301  1.00  0.00     0.227 A 
ATOM     31  N   UNL     1      32.530   1.009  53.083  1.00  0.00    -0.221 NA
ATOM     32  N   UNL     1      32.992  -0.553  51.369  1.00  0.00    -0.213 NA
ATOM     33  C   UNL     1      33.791   1.462  52.947  1.00  0.00     0.117 A 
ATOM     34  C   UNL     1      34.225  -0.048  51.249  1.00  0.00     0.077 A 
ATOM     35  C   UNL     1      34.643   0.969  52.034  1.00  0.00     0.049 A 
BRANCH  34  36
ATOM     36  C   UNL     1      35.094  -0.708  50.241  1.00  0.00     0.019 A 
ATOM     37  C   UNL     1      36.395  -0.248  49.976  1.00  0.00     0.013 A 
ATOM     38  C   UNL     1      34.625  -1.815  49.507  1.00  0.00     0.121 A 
ATOM     39  C   UNL     1      37.152  -0.890  49.005  1.00  0.00     0.021 A 
ATOM     40  N   UNL     1      35.348  -2.432  48.563  1.00  0.00    -0.264 NA
ATOM     41  C   UNL     1      36.597  -1.987  48.349  1.00  0.00     0.111 A 
ENDBRANCH  34  36
ENDBRANCH  28  30
ENDBRANCH   6  28
TORSDOF 7
ENDMDL
MODEL 3
REMARK VINA RESULT:   -12.279      1.384      1.976
REMARK INTER + INTRA:         -15.842
REMARK INTER:                 -14.367
REMARK INTRA:                  -1.475
REMARK CONF_INDEPENDENT:        2.088
REMARK UNBOUND:                -1.475
REMARK SMILES Cc1cn(-c2cc(NC(=O)c3ccc(C)c(Nc4nccc(-c5cccnc5)n4)c3)cc(C(F)(F)F)c2)cn1
REMARK SMILES IDX 11 1 12 2 13 3 14 4 15 5 16 6 30 7 9 8 10 9 8 10 7 12 6 13
REMARK SMILES IDX 31 14 5 15 32 16 37 17 4 18 3 19 38 20 2 21 39 22 1 23 33 24
REMARK SMILES IDX 34 25 35 26 36 27 17 28 18 30 19 31 29 32 20 33 22 34 21 35
REMARK SMILES IDX 23 36 24 37 28 38 25 39 27 40 26 41
REMARK H PARENT 8 11 17 29
ROOT
ATOM      1  C   UNL     1      28.193   1.820  53.069  1.00  0.00     0.042 A 
ATOM      2  C   UNL     1      27.792   0.520  53.411  1.00  0.00     0.014 A 
ATOM      3  C   UNL     1      28.655  -0.357  54.071  1.00  0.00     0.006 A 
ATOM      4  C   UNL     1      29.968  -0.006  54.341  1.00  0.00    -0.027 A 
ATOM      5  C   UNL     1      30.900  -0.975  55.055  1.00  0.00     0.046 C 
ATOM      6  C   UNL     1      30.403   1.247  53.911  1.00  0.00     0.045 A 
ATOM      7  C   UNL     1      29.514   2.121  53.272  1.00  0.00     0.040 A 
ENDROOT
BRANCH   1   8
ATOM      8  C   UNL     1      27.394   2.764  52.263  1.00  0.00     0.255 C 
ATOM      9  O   UNL     1      27.750   2.896  51.117  1.00  0.00    -0.269 OA
ATOM     10  N   UNL     1      26.235   3.169  52.802  1.00  0.00    -0.322 N 
ATOM     11  H   UNL     1      26.025   2.846  53.757  1.00  0.00     0.170 HD
BRANCH  10  12
ATOM     12  C   UNL     1      25.291   3.985  52.191  1.00  0.00     0.044 A 
ATOM     13  C   UNL     1      24.384   4.752  52.962  1.00  0.00     0.052 A 
ATOM     14  C   UNL     1      25.136   3.976  50.787  1.00  0.00     0.039 A 
ATOM     15  C   UNL     1      23.438   5.583  52.356  1.00  0.00     0.049 A 
ATOM     16  C   UNL     1      24.187   4.840  50.171  1.00  0.00     0.060 A 
ATOM     17  C   UNL     1      23.331   5.603  50.969  1.00  0.00     0.039 A 
BRANCH  15  18
ATOM     18  N   UNL     1      22.562   6.379  53.111  1.00  0.00    -0.306 N 
ATOM     19  C   UNL     1      22.087   7.660  52.837  1.00  0.00     0.116 A 
ATOM     20  C   UNL     1      22.066   6.097  54.322  1.00  0.00     0.204 A 
ATOM     21  C   UNL     1      21.338   8.065  53.886  1.00  0.00     0.056 A 
ATOM     22  N   UNL     1      21.311   7.060  54.790  1.00  0.00    -0.242 NA
ATOM     23  C   UNL     1      20.597   9.370  54.049  1.00  0.00     0.068 C 
ENDBRANCH  15  18
BRANCH  16  24
ATOM     24  C   UNL     1      24.085   4.854  48.680  1.00  0.00     0.416 C 
ATOM     25  F   UNL     1      24.894   5.738  48.062  1.00  0.00    -0.166 F 
ATOM     26  F   UNL     1      24.493   3.701  48.163  1.00  0.00    -0.166 F 
ATOM     27  F   UNL     1      22.854   5.204  48.253  1.00  0.00    -0.166 F 
ENDBRANCH  16  24
ENDBRANCH  10  12
ENDBRANCH   1   8
BRANCH   6  28
ATOM     28  N   UNL     1      31.671   1.687  54.313  1.00  0.00    -0.324 N 
ATOM     29  H   UNL     1      31.764   2.380  55.069  1.00  0.00     0.170 HD
BRANCH  28  30
ATOM     30  C   UNL     1      32.807   1.177  53.681  1.00  0.00     0.227 A 
ATOM     31  N   UNL     1      34.083   1.347  54.000  1.00  0.00    -0.221 NA
ATOM     32  N   UNL     1      32.396   0.500  52.578  1.00  0.00    -0.213 NA
ATOM     33  C   UNL     1      34.992   0.774  53.188  1.00  0.00     0.117 A 
ATOM     34  C   UNL     1      33.336  -0.024  51.784  1.00  0.00     0.077 A 
ATOM     35  C   UNL     1      34.648   0.107  52.075  1.00  0.00     0.049 A 
BRANCH  34  36
ATOM     36  C   UNL     1      32.835  -0.784  50.609  1.00  0.00     0.019 A 
ATOM     37  C   UNL     1      31.461  -0.910  50.347  1.00  0.00     0.013 A 
ATOM     38  C   UNL     1      33.734  -1.416  49.729  1.00  0.00     0.121 A 
ATOM     39  C   UNL     1      31.049  -1.654  49.248  1.00  0.00     0.021 A 
ATOM     40  N   UNL     1      33.343  -2.141  48.673  1.00  0.00    -0.264 NA
ATOM     41  C   UNL     1      32.025  -2.223  48.431  1.00  0.00     0.111 A 
ENDBRANCH  34  36
ENDBRANCH  28  30
ENDBRANCH   6  28
TORSDOF 7
ENDMDL
MODEL 4
REMARK VINA RESULT:   -11.953      1.803      3.734
REMARK INTER + INTRA:         -15.708
REMARK INTER:                 -14.041
REMARK INTRA:                  -1.666
REMARK CONF_INDEPENDENT:        2.088
REMARK UNBOUND:                -1.666
REMARK SMILES Cc1cn(-c2cc(NC(=O)c3ccc(C)c(Nc4nccc(-c5cccnc5)n4)c3)cc(C(F)(F)F)c2)cn1
REMARK SMILES IDX 11 1 12 2 13 3 14 4 15 5 16 6 30 7 9 8 10 9 8 10 7 12 6 13
REMARK SMILES IDX 31 14 5 15 32 16 37 17 4 18 3 19 38 20 2 21 39 22 1 23 33 24
REMARK SMILES IDX 34 25 35 26 36 27 17 28 18 30 19 31 29 32 20 33 22 34 21 35
REMARK SMILES IDX 23 36 24 37 28 38 25 39 27 40 26 41
REMARK H PARENT 8 11 17 29
ROOT
ATOM      1  C   UNL     1      27.704   1.759  52.657  1.00  0.00     0.042 A 
ATOM      2  C   UNL     1      27.273   1.301  53.912  1.00  0.00     0.014 A 
ATOM      3  C   UNL     1      27.875   0.205  54.531  1.00  0.00     0.006 A 
ATOM      4  C   UNL     1      28.865  -0.526  53.895  1.00  0.00    -0.027 A 
ATOM      5  C   UNL     1      29.508  -1.724  54.580  1.00  0.00     0.046 C 
ATOM      6  C   UNL     1      29.226  -0.138  52.605  1.00  0.00     0.045 A 
ATOM      7  C   UNL     1      28.628   0.980  52.011  1.00  0.00     0.040 A 
ENDROOT
BRANCH   1   8
ATOM      8  C   UNL     1      27.045   2.825  51.877  1.00  0.00     0.255 C 
ATOM      9  O   UNL     1      27.662   3.222  50.919  1.00  0.00    -0.269 OA
ATOM     10  N   UNL     1      25.753   3.053  52.159  1.00  0.00    -0.322 N 
ATOM     11  H   UNL     1      25.343   2.517  52.937  1.00  0.00     0.170 HD
BRANCH  10  12
ATOM     12  C   UNL     1      24.919   3.944  51.497  1.00  0.00     0.044 A 
ATOM     13  C   UNL     1      24.228   4.957  52.207  1.00  0.00     0.052 A 
ATOM     14  C   UNL     1      24.646   3.786  50.121  1.00  0.00     0.039 A 
ATOM     15  C   UNL     1      23.394   5.865  51.549  1.00  0.00     0.049 A 
ATOM     16  C   UNL     1      23.814   4.726  49.448  1.00  0.00     0.060 A 
ATOM     17  C   UNL     1      23.175   5.728  50.182  1.00  0.00     0.039 A 
BRANCH  15  18
ATOM     18  N   UNL     1      22.738   6.897  52.237  1.00  0.00    -0.306 N 
ATOM     19  C   UNL     1      21.961   6.825  53.391  1.00  0.00     0.116 A 
ATOM     20  C   UNL     1      22.650   8.179  51.863  1.00  0.00     0.204 A 
ATOM     21  C   UNL     1      21.461   8.055  53.642  1.00  0.00     0.056 A 
ATOM     22  N   UNL     1      21.930   8.895  52.693  1.00  0.00    -0.242 NA
ATOM     23  C   UNL     1      20.579   8.483  54.790  1.00  0.00     0.068 C 
ENDBRANCH  15  18
BRANCH  16  24
ATOM     24  C   UNL     1      23.590   4.570  47.979  1.00  0.00     0.416 C 
ATOM     25  F   UNL     1      24.460   5.239  47.196  1.00  0.00    -0.166 F 
ATOM     26  F   UNL     1      23.788   3.313  47.597  1.00  0.00    -0.166 F 
ATOM     27  F   UNL     1      22.389   5.044  47.589  1.00  0.00    -0.166 F 
ENDBRANCH  16  24
ENDBRANCH  10  12
ENDBRANCH   1   8
BRANCH   6  28
ATOM     28  N   UNL     1      30.333  -0.756  52.009  1.00  0.00    -0.324 N 
ATOM     29  H   UNL     1      30.219  -1.643  51.497  1.00  0.00     0.170 HD
BRANCH  28  30
ATOM     30  C   UNL     1      31.591  -0.161  52.113  1.00  0.00     0.227 A 
ATOM     31  N   UNL     1      32.702  -0.440  51.444  1.00  0.00    -0.221 NA
ATOM     32  N   UNL     1      31.532   0.754  53.115  1.00  0.00    -0.213 NA
ATOM     33  C   UNL     1      33.801   0.264  51.774  1.00  0.00     0.117 A 
ATOM     34  C   UNL     1      32.657   1.406  53.429  1.00  0.00     0.077 A 
ATOM     35  C   UNL     1      33.809   1.170  52.765  1.00  0.00     0.049 A 
BRANCH  34  36
ATOM     36  C   UNL     1      32.532   2.421  54.508  1.00  0.00     0.019 A 
ATOM     37  C   UNL     1      31.436   2.430  55.385  1.00  0.00     0.013 A 
ATOM     38  C   UNL     1      33.514   3.418  54.669  1.00  0.00     0.121 A 
ATOM     39  C   UNL     1      31.359   3.418  56.358  1.00  0.00     0.021 A 
ATOM     40  N   UNL     1      33.441   4.377  55.601  1.00  0.00    -0.264 NA
ATOM     41  C   UNL     1      32.395   4.347  56.442  1.00  0.00     0.111 A 
ENDBRANCH  34  36
ENDBRANCH  28  30
ENDBRANCH   6  28
TORSDOF 7
ENDMDL
MODEL 5
REMARK VINA RESULT:   -11.668      2.498      4.016
REMARK INTER + INTRA:         -14.944
REMARK INTER:                 -13.757
REMARK INTRA:                  -1.187
REMARK CONF_INDEPENDENT:        2.088
REMARK UNBOUND:                -1.187
REMARK SMILES Cc1cn(-c2cc(NC(=O)c3ccc(C)c(Nc4nccc(-c5cccnc5)n4)c3)cc(C(F)(F)F)c2)cn1
REMARK SMILES IDX 11 1 12 2 13 3 14 4 15 5 16 6 30 7 9 8 10 9 8 10 7 12 6 13
REMARK SMILES IDX 31 14 5 15 32 16 37 17 4 18 3 19 38 20 2 21 39 22 1 23 33 24
REMARK SMILES IDX 34 25 35 26 36 27 17 28 18 30 19 31 29 32 20 33 22 34 21 35
REMARK SMILES IDX 23 36 24 37 28 38 25 39 27 40 26 41
REMARK H PARENT 8 11 17 29
ROOT
ATOM      1  C   UNL     1      28.629   1.748  53.458  1.00  0.00     0.042 A 
ATOM      2  C   UNL     1      28.308   1.160  54.691  1.00  0.00     0.014 A 
ATOM      3  C   UNL     1      29.173   0.259  55.313  1.00  0.00     0.006 A 
ATOM      4  C   UNL     1      30.345  -0.154  54.699  1.00  0.00    -0.027 A 
ATOM      5  C   UNL     1      31.275  -1.143  55.386  1.00  0.00     0.046 C 
ATOM      6  C   UNL     1      30.619   0.348  53.427  1.00  0.00     0.045 A 
ATOM      7  C   UNL     1      29.750   1.270  52.830  1.00  0.00     0.040 A 
ENDROOT
BRANCH   1   8
ATOM      8  C   UNL     1      27.722   2.608  52.672  1.00  0.00     0.255 C 
ATOM      9  O   UNL     1      28.082   2.848  51.546  1.00  0.00    -0.269 OA
ATOM     10  N   UNL     1      26.503   2.815  53.194  1.00  0.00    -0.322 N 
ATOM     11  H   UNL     1      26.320   2.417  54.126  1.00  0.00     0.170 HD
BRANCH  10  12
ATOM     12  C   UNL     1      25.467   3.517  52.592  1.00  0.00     0.044 A 
ATOM     13  C   UNL     1      24.884   3.061  51.384  1.00  0.00     0.052 A 
ATOM     14  C   UNL     1      25.052   4.765  53.106  1.00  0.00     0.039 A 
ATOM     15  C   UNL     1      23.835   3.756  50.776  1.00  0.00     0.049 A 
ATOM     16  C   UNL     1      23.968   5.460  52.498  1.00  0.00     0.060 A 
ATOM     17  C   UNL     1      23.402   4.959  51.324  1.00  0.00     0.039 A 
BRANCH  15  18
ATOM     18  N   UNL     1      23.223   3.290  49.603  1.00  0.00    -0.306 N 
ATOM     19  C   UNL     1      22.670   2.037  49.341  1.00  0.00     0.116 A 
ATOM     20  C   UNL     1      23.126   3.940  48.437  1.00  0.00     0.204 A 
ATOM     21  C   UNL     1      22.274   2.012  48.050  1.00  0.00     0.056 A 
ATOM     22  N   UNL     1      22.538   3.223  47.511  1.00  0.00    -0.242 NA
ATOM     23  C   UNL     1      21.602   0.884  47.306  1.00  0.00     0.068 C 
ENDBRANCH  15  18
BRANCH  16  24
ATOM     24  C   UNL     1      23.510   6.750  53.099  1.00  0.00     0.416 C 
ATOM     25  F   UNL     1      23.235   7.726  52.211  1.00  0.00    -0.166 F 
ATOM     26  F   UNL     1      22.343   6.601  53.715  1.00  0.00    -0.166 F 
ATOM     27  F   UNL     1      24.446   7.305  53.896  1.00  0.00    -0.166 F 
ENDBRANCH  16  24
ENDBRANCH  10  12
ENDBRANCH   1   8
BRANCH   6  28
ATOM     28  N   UNL     1      31.869   0.074  52.858  1.00  0.00    -0.324 N 
ATOM     29  H   UNL     1      32.733   0.333  53.353  1.00  0.00     0.170 HD
BRANCH  28  30
ATOM     30  C   UNL     1      31.933  -0.554  51.612  1.00  0.00     0.227 A 
ATOM     31  N   UNL     1      30.947  -1.057  50.881  1.00  0.00    -0.221 NA
ATOM     32  N   UNL     1      33.243  -0.649  51.267  1.00  0.00    -0.213 NA
ATOM     33  C   UNL     1      31.293  -1.654  49.725  1.00  0.00     0.117 A 
ATOM     34  C   UNL     1      33.540  -1.279  50.124  1.00  0.00     0.077 A 
ATOM     35  C   UNL     1      32.571  -1.793  49.337  1.00  0.00     0.049 A 
BRANCH  34  36
ATOM     36  C   UNL     1      34.984  -1.327  49.774  1.00  0.00     0.019 A 
ATOM     37  C   UNL     1      35.528  -2.393  49.041  1.00  0.00     0.013 A 
ATOM     38  C   UNL     1      35.854  -0.298  50.186  1.00  0.00     0.121 A 
ATOM     39  C   UNL     1      36.890  -2.397  48.764  1.00  0.00     0.021 A 
ATOM     40  N   UNL     1      37.169  -0.301  49.929  1.00  0.00    -0.264 NA
ATOM     41  C   UNL     1      37.658  -1.320  49.205  1.00  0.00     0.111 A 
ENDBRANCH  34  36
ENDBRANCH  28  30
ENDBRANCH   6  28
TORSDOF 7
ENDMDL
MODEL 6
REMARK VINA RESULT:   -11.484      3.763     11.813
REMARK INTER + INTRA:         -14.752
REMARK INTER:                 -13.572
REMARK INTRA:                  -1.179
REMARK CONF_INDEPENDENT:        2.088
REMARK UNBOUND:                -1.179
REMARK SMILES Cc1cn(-c2cc(NC(=O)c3ccc(C)c(Nc4nccc(-c5cccnc5)n4)c3)cc(C(F)(F)F)c2)cn1
REMARK SMILES IDX 11 1 12 2 13 3 14 4 15 5 16 6 30 7 9 8 10 9 8 10 7 12 6 13
REMARK SMILES IDX 31 14 5 15 32 16 37 17 4 18 3 19 38 20 2 21 39 22 1 23 33 24
REMARK SMILES IDX 34 25 35 26 36 27 17 28 18 30 19 31 29 32 20 33 22 34 21 35
REMARK SMILES IDX 23 36 24 37 28 38 25 39 27 40 26 41
REMARK H PARENT 8 11 17 29
ROOT
ATOM      1  C   UNL     1      25.918   3.828  51.947  1.00  0.00     0.042 A 
ATOM      2  C   UNL     1      25.278   4.275  50.781  1.00  0.00     0.014 A 
ATOM      3  C   UNL     1      24.155   5.101  50.839  1.00  0.00     0.006 A 
ATOM      4  C   UNL     1      23.577   5.444  52.051  1.00  0.00    -0.027 A 
ATOM      5  C   UNL     1      22.347   6.339  52.099  1.00  0.00     0.046 C 
ATOM      6  C   UNL     1      24.146   4.918  53.210  1.00  0.00     0.045 A 
ATOM      7  C   UNL     1      25.289   4.111  53.131  1.00  0.00     0.040 A 
ENDROOT
BRANCH   1   8
ATOM      8  C   UNL     1      27.027   2.855  51.980  1.00  0.00     0.255 C 
ATOM      9  O   UNL     1      27.733   2.840  51.001  1.00  0.00    -0.269 OA
ATOM     10  N   UNL     1      27.280   2.287  53.169  1.00  0.00    -0.322 N 
ATOM     11  H   UNL     1      26.644   2.520  53.944  1.00  0.00     0.170 HD
BRANCH  10  12
ATOM     12  C   UNL     1      28.322   1.411  53.449  1.00  0.00     0.044 A 
ATOM     13  C   UNL     1      29.626   1.648  52.947  1.00  0.00     0.052 A 
ATOM     14  C   UNL     1      28.079   0.204  54.140  1.00  0.00     0.039 A 
ATOM     15  C   UNL     1      30.682   0.778  53.232  1.00  0.00     0.049 A 
ATOM     16  C   UNL     1      29.161  -0.669  54.449  1.00  0.00     0.060 A 
ATOM     17  C   UNL     1      30.437  -0.382  53.959  1.00  0.00     0.039 A 
BRANCH  15  18
ATOM     18  N   UNL     1      31.985   1.026  52.775  1.00  0.00    -0.306 N 
ATOM     19  C   UNL     1      32.620   0.539  51.633  1.00  0.00     0.116 A 
ATOM     20  C   UNL     1      32.937   1.724  53.406  1.00  0.00     0.204 A 
ATOM     21  C   UNL     1      33.899   0.973  51.644  1.00  0.00     0.056 A 
ATOM     22  N   UNL     1      34.068   1.739  52.744  1.00  0.00    -0.242 NA
ATOM     23  C   UNL     1      34.973   0.725  50.612  1.00  0.00     0.068 C 
ENDBRANCH  15  18
BRANCH  16  24
ATOM     24  C   UNL     1      28.885  -1.910  55.233  1.00  0.00     0.416 C 
ATOM     25  F   UNL     1      28.054  -2.788  54.637  1.00  0.00    -0.166 F 
ATOM     26  F   UNL     1      29.988  -2.635  55.384  1.00  0.00    -0.166 F 
ATOM     27  F   UNL     1      28.275  -1.650  56.408  1.00  0.00    -0.166 F 
ENDBRANCH  16  24
ENDBRANCH  10  12
ENDBRANCH   1   8
BRANCH   6  28
ATOM     28  N   UNL     1      23.683   5.379  54.449  1.00  0.00    -0.324 N 
ATOM     29  H   UNL     1      22.743   5.118  54.781  1.00  0.00     0.170 HD
BRANCH  28  30
ATOM     30  C   UNL     1      24.504   6.194  55.230  1.00  0.00     0.227 A 
ATOM     31  N   UNL     1      25.785   6.496  55.056  1.00  0.00    -0.221 NA
ATOM     32  N   UNL     1      23.780   6.601  56.304  1.00  0.00    -0.213 NA
ATOM     33  C   UNL     1      26.355   7.278  55.992  1.00  0.00     0.117 A 
ATOM     34  C   UNL     1      24.398   7.350  57.223  1.00  0.00     0.077 A 
ATOM     35  C   UNL     1      25.695   7.699  57.083  1.00  0.00     0.049 A 
BRANCH  34  36
ATOM     36  C   UNL     1      23.553   7.799  58.361  1.00  0.00     0.019 A 
ATOM     37  C   UNL     1      22.282   7.251  58.593  1.00  0.00     0.013 A 
ATOM     38  C   UNL     1      24.006   8.806  59.235  1.00  0.00     0.121 A 
ATOM     39  C   UNL     1      21.526   7.726  59.657  1.00  0.00     0.021 A 
ATOM     40  N   UNL     1      23.279   9.274  60.258  1.00  0.00    -0.264 NA
ATOM     41  C   UNL     1      22.077   8.714  60.472  1.00  0.00     0.111 A 
ENDBRANCH  34  36
ENDBRANCH  28  30
ENDBRANCH   6  28
TORSDOF 7
ENDMDL
MODEL 7
REMARK VINA RESULT:   -11.380      4.155     11.182
REMARK INTER + INTRA:         -14.654
REMARK INTER:                 -13.468
REMARK INTRA:                  -1.187
REMARK CONF_INDEPENDENT:        2.088
REMARK UNBOUND:                -1.187
REMARK SMILES Cc1cn(-c2cc(NC(=O)c3ccc(C)c(Nc4nccc(-c5cccnc5)n4)c3)cc(C(F)(F)F)c2)cn1
REMARK SMILES IDX 11 1 12 2 13 3 14 4 15 5 16 6 30 7 9 8 10 9 8 10 7 12 6 13
REMARK SMILES IDX 31 14 5 15 32 16 37 17 4 18 3 19 38 20 2 21 39 22 1 23 33 24
REMARK SMILES IDX 34 25 35 26 36 27 17 28 18 30 19 31 29 32 20 33 22 34 21 35
REMARK SMILES IDX 23 36 24 37 28 38 25 39 27 40 26 41
REMARK H PARENT 8 11 17 29
ROOT
ATOM      1  C   UNL     1      25.859   3.902  52.044  1.00  0.00     0.042 A 
ATOM      2  C   UNL     1      25.254   4.407  50.884  1.00  0.00     0.014 A 
ATOM      3  C   UNL     1      24.144   5.251  50.950  1.00  0.00     0.006 A 
ATOM      4  C   UNL     1      23.545   5.556  52.162  1.00  0.00    -0.027 A 
ATOM      5  C   UNL     1      22.330   6.471  52.219  1.00  0.00     0.046 C 
ATOM      6  C   UNL     1      24.078   4.973  53.311  1.00  0.00     0.045 A 
ATOM      7  C   UNL     1      25.208   4.150  53.225  1.00  0.00     0.040 A 
ENDROOT
BRANCH   1   8
ATOM      8  C   UNL     1      26.950   2.909  52.063  1.00  0.00     0.255 C 
ATOM      9  O   UNL     1      27.617   2.852  51.058  1.00  0.00    -0.269 OA
ATOM     10  N   UNL     1      27.239   2.369  53.256  1.00  0.00    -0.322 N 
ATOM     11  H   UNL     1      26.638   2.637  54.048  1.00  0.00     0.170 HD
BRANCH  10  12
ATOM     12  C   UNL     1      28.274   1.481  53.522  1.00  0.00     0.044 A 
ATOM     13  C   UNL     1      29.575   1.706  53.007  1.00  0.00     0.052 A 
ATOM     14  C   UNL     1      28.025   0.273  54.209  1.00  0.00     0.039 A 
ATOM     15  C   UNL     1      30.625   0.824  53.276  1.00  0.00     0.049 A 
ATOM     16  C   UNL     1      29.101  -0.613  54.501  1.00  0.00     0.060 A 
ATOM     17  C   UNL     1      30.375  -0.338  54.000  1.00  0.00     0.039 A 
BRANCH  15  18
ATOM     18  N   UNL     1      31.926   1.060  52.806  1.00  0.00    -0.306 N 
ATOM     19  C   UNL     1      32.533   0.594  51.642  1.00  0.00     0.116 A 
ATOM     20  C   UNL     1      32.900   1.721  53.442  1.00  0.00     0.204 A 
ATOM     21  C   UNL     1      33.821   1.004  51.645  1.00  0.00     0.056 A 
ATOM     22  N   UNL     1      34.021   1.734  52.765  1.00  0.00    -0.242 NA
ATOM     23  C   UNL     1      34.874   0.765  50.591  1.00  0.00     0.068 C 
ENDBRANCH  15  18
BRANCH  16  24
ATOM     24  C   UNL     1      28.820  -1.856  55.283  1.00  0.00     0.416 C 
ATOM     25  F   UNL     1      28.275  -1.653  56.499  1.00  0.00    -0.166 F 
ATOM     26  F   UNL     1      27.892  -2.595  54.686  1.00  0.00    -0.166 F 
ATOM     27  F   UNL     1      29.941  -2.555  55.554  1.00  0.00    -0.166 F 
ENDBRANCH  16  24
ENDBRANCH  10  12
ENDBRANCH   1   8
BRANCH   6  28
ATOM     28  N   UNL     1      23.595   5.393  54.557  1.00  0.00    -0.324 N 
ATOM     29  H   UNL     1      22.866   4.849  55.041  1.00  0.00     0.170 HD
BRANCH  28  30
ATOM     30  C   UNL     1      24.109   6.553  55.138  1.00  0.00     0.227 A 
ATOM     31  N   UNL     1      24.213   7.770  54.618  1.00  0.00    -0.221 NA
ATOM     32  N   UNL     1      24.589   6.222  56.365  1.00  0.00    -0.213 NA
ATOM     33  C   UNL     1      24.795   8.710  55.386  1.00  0.00     0.117 A 
ATOM     34  C   UNL     1      25.188   7.183  57.078  1.00  0.00     0.077 A 
ATOM     35  C   UNL     1      25.302   8.440  56.599  1.00  0.00     0.049 A 
BRANCH  34  36
ATOM     36  C   UNL     1      25.664   6.778  58.427  1.00  0.00     0.019 A 
ATOM     37  C   UNL     1      24.771   6.560  59.488  1.00  0.00     0.013 A 
ATOM     38  C   UNL     1      27.040   6.616  58.680  1.00  0.00     0.121 A 
ATOM     39  C   UNL     1      25.275   6.209  60.733  1.00  0.00     0.021 A 
ATOM     40  N   UNL     1      27.533   6.285  59.881  1.00  0.00    -0.264 NA
ATOM     41  C   UNL     1      26.654   6.058  60.871  1.00  0.00     0.111 A 
ENDBRANCH  34  36
ENDBRANCH  28  30
ENDBRANCH   6  28
TORSDOF 7
ENDMDL
MODEL 8
REMARK VINA RESULT:   -11.268      1.958      3.079
REMARK INTER + INTRA:         -14.605
REMARK INTER:                 -13.356
REMARK INTRA:                  -1.249
REMARK CONF_INDEPENDENT:        2.088
REMARK UNBOUND:                -1.249
REMARK SMILES Cc1cn(-c2cc(NC(=O)c3ccc(C)c(Nc4nccc(-c5cccnc5)n4)c3)cc(C(F)(F)F)c2)cn1
REMARK SMILES IDX 11 1 12 2 13 3 14 4 15 5 16 6 30 7 9 8 10 9 8 10 7 12 6 13
REMARK SMILES IDX 31 14 5 15 32 16 37 17 4 18 3 19 38 20 2 21 39 22 1 23 33 24
REMARK SMILES IDX 34 25 35 26 36 27 17 28 18 30 19 31 29 32 20 33 22 34 21 35
REMARK SMILES IDX 23 36 24 37 28 38 25 39 27 40 26 41
REMARK H PARENT 8 11 17 29
ROOT
ATOM      1  C   UNL     1      26.939   2.408  52.327  1.00  0.00     0.042 A 
ATOM      2  C   UNL     1      27.117   1.049  52.026  1.00  0.00     0.014 A 
ATOM      3  C   UNL     1      27.898   0.222  52.835  1.00  0.00     0.006 A 
ATOM      4  C   UNL     1      28.594   0.728  53.921  1.00  0.00    -0.027 A 
ATOM      5  C   UNL     1      29.447  -0.185  54.790  1.00  0.00     0.046 C 
ATOM      6  C   UNL     1      28.503   2.097  54.165  1.00  0.00     0.045 A 
ATOM      7  C   UNL     1      27.695   2.906  53.356  1.00  0.00     0.040 A 
ENDROOT
BRANCH   1   8
ATOM      8  C   UNL     1      26.239   3.379  51.463  1.00  0.00     0.255 C 
ATOM      9  O   UNL     1      26.400   3.226  50.276  1.00  0.00    -0.269 OA
ATOM     10  N   UNL     1      25.318   4.149  52.062  1.00  0.00    -0.322 N 
ATOM     11  H   UNL     1      25.219   4.050  53.082  1.00  0.00     0.170 HD
BRANCH  10  12
ATOM     12  C   UNL     1      24.487   5.066  51.432  1.00  0.00     0.044 A 
ATOM     13  C   UNL     1      23.841   6.088  52.171  1.00  0.00     0.052 A 
ATOM     14  C   UNL     1      24.172   4.928  50.063  1.00  0.00     0.039 A 
ATOM     15  C   UNL     1      23.010   7.022  51.545  1.00  0.00     0.049 A 
ATOM     16  C   UNL     1      23.343   5.893  49.423  1.00  0.00     0.060 A 
ATOM     17  C   UNL     1      22.750   6.903  50.183  1.00  0.00     0.039 A 
BRANCH  15  18
ATOM     18  N   UNL     1      22.400   8.063  52.260  1.00  0.00    -0.306 N 
ATOM     19  C   UNL     1      22.742   9.413  52.305  1.00  0.00     0.116 A 
ATOM     20  C   UNL     1      21.395   7.951  53.137  1.00  0.00     0.204 A 
ATOM     21  C   UNL     1      21.928  10.026  53.193  1.00  0.00     0.056 A 
ATOM     22  N   UNL     1      21.072   9.100  53.678  1.00  0.00    -0.242 NA
ATOM     23  C   UNL     1      21.900  11.486  53.573  1.00  0.00     0.068 C 
ENDBRANCH  15  18
BRANCH  16  24
ATOM     24  C   UNL     1      23.075   5.756  47.959  1.00  0.00     0.416 C 
ATOM     25  F   UNL     1      22.705   6.894  47.339  1.00  0.00    -0.166 F 
ATOM     26  F   UNL     1      24.180   5.430  47.300  1.00  0.00    -0.166 F 
ATOM     27  F   UNL     1      22.054   4.913  47.702  1.00  0.00    -0.166 F 
ENDBRANCH  16  24
ENDBRANCH  10  12
ENDBRANCH   1   8
BRANCH   6  28
ATOM     28  N   UNL     1      29.063   2.603  55.345  1.00  0.00    -0.324 N 
ATOM     29  H   UNL     1      28.473   2.759  56.175  1.00  0.00     0.170 HD
BRANCH  28  30
ATOM     30  C   UNL     1      30.428   2.893  55.389  1.00  0.00     0.227 A 
ATOM     31  N   UNL     1      31.068   3.774  56.147  1.00  0.00    -0.221 NA
ATOM     32  N   UNL     1      31.037   2.151  54.428  1.00  0.00    -0.213 NA
ATOM     33  C   UNL     1      32.396   3.886  55.956  1.00  0.00     0.117 A 
ATOM     34  C   UNL     1      32.353   2.321  54.253  1.00  0.00     0.077 A 
ATOM     35  C   UNL     1      33.052   3.192  55.012  1.00  0.00     0.049 A 
BRANCH  34  36
ATOM     36  C   UNL     1      32.979   1.461  53.215  1.00  0.00     0.019 A 
ATOM     37  C   UNL     1      34.276   1.710  52.738  1.00  0.00     0.013 A 
ATOM     38  C   UNL     1      32.273   0.372  52.667  1.00  0.00     0.121 A 
ATOM     39  C   UNL     1      34.800   0.889  51.748  1.00  0.00     0.021 A 
ATOM     40  N   UNL     1      32.770  -0.418  51.707  1.00  0.00    -0.264 NA
ATOM     41  C   UNL     1      34.022  -0.173  51.287  1.00  0.00     0.111 A 
ENDBRANCH  34  36
ENDBRANCH  28  30
ENDBRANCH   6  28
TORSDOF 7
ENDMDL
MODEL 9
REMARK VINA RESULT:   -11.245      2.692      5.063
REMARK INTER + INTRA:         -14.929
REMARK INTER:                 -13.334
REMARK INTRA:                  -1.595
REMARK CONF_INDEPENDENT:        2.088
REMARK UNBOUND:                -1.595
REMARK SMILES Cc1cn(-c2cc(NC(=O)c3ccc(C)c(Nc4nccc(-c5cccnc5)n4)c3)cc(C(F)(F)F)c2)cn1
REMARK SMILES IDX 11 1 12 2 13 3 14 4 15 5 16 6 30 7 9 8 10 9 8 10 7 12 6 13
REMARK SMILES IDX 31 14 5 15 32 16 37 17 4 18 3 19 38 20 2 21 39 22 1 23 33 24
REMARK SMILES IDX 34 25 35 26 36 27 17 28 18 30 19 31 29 32 20 33 22 34 21 35
REMARK SMILES IDX 23 36 24 37 28 38 25 39 27 40 26 41
REMARK H PARENT 8 11 17 29
ROOT
ATOM      1  C   UNL     1      27.927   1.360  53.517  1.00  0.00     0.042 A 
ATOM      2  C   UNL     1      27.545   0.656  54.668  1.00  0.00     0.014 A 
ATOM      3  C   UNL     1      28.190  -0.522  55.048  1.00  0.00     0.006 A 
ATOM      4  C   UNL     1      29.178  -1.087  54.257  1.00  0.00    -0.027 A 
ATOM      5  C   UNL     1      29.867  -2.377  54.679  1.00  0.00     0.046 C 
ATOM      6  C   UNL     1      29.490  -0.448  53.058  1.00  0.00     0.045 A 
ATOM      7  C   UNL     1      28.849   0.747  52.708  1.00  0.00     0.040 A 
ENDROOT
BRANCH   1   8
ATOM      8  C   UNL     1      27.221   2.538  52.975  1.00  0.00     0.255 C 
ATOM      9  O   UNL     1      27.703   3.018  51.978  1.00  0.00    -0.269 OA
ATOM     10  N   UNL     1      26.007   2.787  53.487  1.00  0.00    -0.322 N 
ATOM     11  H   UNL     1      25.692   2.182  54.259  1.00  0.00     0.170 HD
BRANCH  10  12
ATOM     12  C   UNL     1      25.135   3.786  53.072  1.00  0.00     0.044 A 
ATOM     13  C   UNL     1      24.875   3.997  51.695  1.00  0.00     0.052 A 
ATOM     14  C   UNL     1      24.584   4.691  54.005  1.00  0.00     0.039 A 
ATOM     15  C   UNL     1      23.992   4.993  51.268  1.00  0.00     0.049 A 
ATOM     16  C   UNL     1      23.667   5.690  53.570  1.00  0.00     0.060 A 
ATOM     17  C   UNL     1      23.415   5.845  52.205  1.00  0.00     0.039 A 
BRANCH  15  18
ATOM     18  N   UNL     1      23.695   5.183  49.910  1.00  0.00    -0.306 N 
ATOM     19  C   UNL     1      23.918   6.305  49.114  1.00  0.00     0.116 A 
ATOM     20  C   UNL     1      23.037   4.338  49.108  1.00  0.00     0.204 A 
ATOM     21  C   UNL     1      23.392   6.067  47.893  1.00  0.00     0.056 A 
ATOM     22  N   UNL     1      22.874   4.818  47.900  1.00  0.00    -0.242 NA
ATOM     23  C   UNL     1      23.400   6.972  46.685  1.00  0.00     0.068 C 
ENDBRANCH  15  18
BRANCH  16  24
ATOM     24  C   UNL     1      23.052   6.596  54.587  1.00  0.00     0.416 C 
ATOM     25  F   UNL     1      22.673   5.994  55.731  1.00  0.00    -0.166 F 
ATOM     26  F   UNL     1      23.931   7.490  55.024  1.00  0.00    -0.166 F 
ATOM     27  F   UNL     1      21.914   7.168  54.142  1.00  0.00    -0.166 F 
ENDBRANCH  16  24
ENDBRANCH  10  12
ENDBRANCH   1   8
BRANCH   6  28
ATOM     28  N   UNL     1      30.592  -0.907  52.325  1.00  0.00    -0.324 N 
ATOM     29  H   UNL     1      30.542  -1.802  51.819  1.00  0.00     0.170 HD
BRANCH  28  30
ATOM     30  C   UNL     1      31.759  -0.141  52.287  1.00  0.00     0.227 A 
ATOM     31  N   UNL     1      32.815  -0.271  51.494  1.00  0.00    -0.221 NA
ATOM     32  N   UNL     1      31.687   0.769  53.292  1.00  0.00    -0.213 NA
ATOM     33  C   UNL     1      33.835   0.583  51.698  1.00  0.00     0.117 A 
ATOM     34  C   UNL     1      32.739   1.576  53.477  1.00  0.00     0.077 A 
ATOM     35  C   UNL     1      33.830   1.494  52.685  1.00  0.00     0.049 A 
BRANCH  34  36
ATOM     36  C   UNL     1      32.598   2.577  54.567  1.00  0.00     0.019 A 
ATOM     37  C   UNL     1      33.501   3.642  54.708  1.00  0.00     0.013 A 
ATOM     38  C   UNL     1      31.551   2.471  55.504  1.00  0.00     0.121 A 
ATOM     39  C   UNL     1      33.334   4.533  55.761  1.00  0.00     0.021 A 
ATOM     40  N   UNL     1      31.390   3.322  56.525  1.00  0.00    -0.264 NA
ATOM     41  C   UNL     1      32.253   4.346  56.622  1.00  0.00     0.111 A 
ENDBRANCH  34  36
ENDBRANCH  28  30
ENDBRANCH   6  28
TORSDOF 7
ENDMDL
MODEL 10
REMARK VINA RESULT:   -11.145      2.859      4.105
REMARK INTER + INTRA:         -14.210
REMARK INTER:                 -13.233
REMARK INTRA:                  -0.977
REMARK CONF_INDEPENDENT:        2.088
REMARK UNBOUND:                -0.977
REMARK SMILES Cc1cn(-c2cc(NC(=O)c3ccc(C)c(Nc4nccc(-c5cccnc5)n4)c3)cc(C(F)(F)F)c2)cn1
REMARK SMILES IDX 11 1 12 2 13 3 14 4 15 5 16 6 30 7 9 8 10 9 8 10 7 12 6 13
REMARK SMILES IDX 31 14 5 15 32 16 37 17 4 18 3 19 38 20 2 21 39 22 1 23 33 24
REMARK SMILES IDX 34 25 35 26 36 27 17 28 18 30 19 31 29 32 20 33 22 34 21 35
REMARK SMILES IDX 23 36 24 37 28 38 25 39 27 40 26 41
REMARK H PARENT 8 11 17 29
ROOT
ATOM      1  C   UNL     1      28.258   2.264  52.580  1.00  0.00     0.042 A 
ATOM      2  C   UNL     1      28.374   3.002  53.767  1.00  0.00     0.014 A 
ATOM      3  C   UNL     1      29.442   2.804  54.644  1.00  0.00     0.006 A 
ATOM      4  C   UNL     1      30.384   1.813  54.418  1.00  0.00    -0.027 A 
ATOM      5  C   UNL     1      31.539   1.604  55.386  1.00  0.00     0.046 C 
ATOM      6  C   UNL     1      30.216   1.007  53.293  1.00  0.00     0.045 A 
ATOM      7  C   UNL     1      29.151   1.238  52.412  1.00  0.00     0.040 A 
ENDROOT
BRANCH   1   8
ATOM      8  C   UNL     1      27.101   2.317  51.664  1.00  0.00     0.255 C 
ATOM      9  O   UNL     1      26.709   1.250  51.261  1.00  0.00    -0.269 OA
ATOM     10  N   UNL     1      26.466   3.496  51.581  1.00  0.00    -0.322 N 
ATOM     11  H   UNL     1      26.872   4.283  52.107  1.00  0.00     0.170 HD
BRANCH  10  12
ATOM     12  C   UNL     1      25.313   3.752  50.851  1.00  0.00     0.044 A 
ATOM     13  C   UNL     1      24.592   2.698  50.237  1.00  0.00     0.052 A 
ATOM     14  C   UNL     1      24.900   5.079  50.602  1.00  0.00     0.039 A 
ATOM     15  C   UNL     1      23.425   2.944  49.509  1.00  0.00     0.049 A 
ATOM     16  C   UNL     1      23.699   5.327  49.878  1.00  0.00     0.060 A 
ATOM     17  C   UNL     1      23.002   4.255  49.316  1.00  0.00     0.039 A 
BRANCH  15  18
ATOM     18  N   UNL     1      22.680   1.903  48.933  1.00  0.00    -0.306 N 
ATOM     19  C   UNL     1      22.505   1.594  47.586  1.00  0.00     0.116 A 
ATOM     20  C   UNL     1      21.895   1.030  49.575  1.00  0.00     0.204 A 
ATOM     21  C   UNL     1      21.638   0.561  47.500  1.00  0.00     0.056 A 
ATOM     22  N   UNL     1      21.293   0.202  48.756  1.00  0.00    -0.242 NA
ATOM     23  C   UNL     1      21.150  -0.140  46.255  1.00  0.00     0.068 C 
ENDBRANCH  15  18
BRANCH  16  24
ATOM     24  C   UNL     1      23.254   6.740  49.681  1.00  0.00     0.416 C 
ATOM     25  F   UNL     1      24.228   7.664  49.788  1.00  0.00    -0.166 F 
ATOM     26  F   UNL     1      22.824   6.936  48.440  1.00  0.00    -0.166 F 
ATOM     27  F   UNL     1      22.351   7.127  50.606  1.00  0.00    -0.166 F 
ENDBRANCH  16  24
ENDBRANCH  10  12
ENDBRANCH   1   8
BRANCH   6  28
ATOM     28  N   UNL     1      31.238   0.111  52.956  1.00  0.00    -0.324 N 
ATOM     29  H   UNL     1      31.068  -0.904  52.981  1.00  0.00     0.170 HD
BRANCH  28  30
ATOM     30  C   UNL     1      32.490   0.605  52.585  1.00  0.00     0.227 A 
ATOM     31  N   UNL     1      33.060   1.758  52.912  1.00  0.00    -0.221 NA
ATOM     32  N   UNL     1      33.047  -0.286  51.725  1.00  0.00    -0.213 NA
ATOM     33  C   UNL     1      34.270   2.009  52.376  1.00  0.00     0.117 A 
ATOM     34  C   UNL     1      34.235   0.022  51.193  1.00  0.00     0.077 A 
ATOM     35  C   UNL     1      34.864   1.175  51.509  1.00  0.00     0.049 A 
BRANCH  34  36
ATOM     36  C   UNL     1      34.817  -1.001  50.286  1.00  0.00     0.019 A 
ATOM     37  C   UNL     1      36.138  -0.905  49.819  1.00  0.00     0.013 A 
ATOM     38  C   UNL     1      34.045  -2.097  49.854  1.00  0.00     0.121 A 
ATOM     39  C   UNL     1      36.621  -1.877  48.953  1.00  0.00     0.021 A 
ATOM     40  N   UNL     1      34.502  -3.033  49.012  1.00  0.00    -0.264 NA
ATOM     41  C   UNL     1      35.776  -2.930  48.602  1.00  0.00     0.111 A 
ENDBRANCH  34  36
ENDBRANCH  28  30
ENDBRANCH   6  28
TORSDOF 7
ENDMDL
MODEL 11
REMARK VINA RESULT:   -11.127      3.648     12.052
REMARK INTER + INTRA:         -14.439
REMARK INTER:                 -13.215
REMARK INTRA:                  -1.224
REMARK CONF_INDEPENDENT:        2.088
REMARK UNBOUND:                -1.224
REMARK SMILES Cc1cn(-c2cc(NC(=O)c3ccc(C)c(Nc4nccc(-c5cccnc5)n4)c3)cc(C(F)(F)F)c2)cn1
REMARK SMILES IDX 11 1 12 2 13 3 14 4 15 5 16 6 30 7 9 8 10 9 8 10 7 12 6 13
REMARK SMILES IDX 31 14 5 15 32 16 37 17 4 18 3 19 38 20 2 21 39 22 1 23 33 24
REMARK SMILES IDX 34 25 35 26 36 27 17 28 18 30 19 31 29 32 20 33 22 34 21 35
REMARK SMILES IDX 23 36 24 37 28 38 25 39 27 40 26 41
REMARK H PARENT 8 11 17 29
ROOT
ATOM      1  C   UNL     1      26.118   3.495  51.638  1.00  0.00     0.042 A 
ATOM      2  C   UNL     1      25.504   3.856  50.429  1.00  0.00     0.014 A 
ATOM      3  C   UNL     1      24.247   4.463  50.405  1.00  0.00     0.006 A 
ATOM      4  C   UNL     1      23.520   4.657  51.568  1.00  0.00    -0.027 A 
ATOM      5  C   UNL     1      22.148   5.313  51.526  1.00  0.00     0.046 C 
ATOM      6  C   UNL     1      24.080   4.206  52.763  1.00  0.00     0.045 A 
ATOM      7  C   UNL     1      25.353   3.622  52.769  1.00  0.00     0.040 A 
ENDROOT
BRANCH   1   8
ATOM      8  C   UNL     1      27.380   2.739  51.750  1.00  0.00     0.255 C 
ATOM      9  O   UNL     1      28.310   3.186  51.124  1.00  0.00    -0.269 OA
ATOM     10  N   UNL     1      27.427   1.806  52.713  1.00  0.00    -0.322 N 
ATOM     11  H   UNL     1      26.564   1.645  53.251  1.00  0.00     0.170 HD
BRANCH  10  12
ATOM     12  C   UNL     1      28.534   1.037  53.051  1.00  0.00     0.044 A 
ATOM     13  C   UNL     1      29.819   1.350  52.543  1.00  0.00     0.052 A 
ATOM     14  C   UNL     1      28.383  -0.144  53.809  1.00  0.00     0.039 A 
ATOM     15  C   UNL     1      30.940   0.589  52.885  1.00  0.00     0.049 A 
ATOM     16  C   UNL     1      29.530  -0.906  54.175  1.00  0.00     0.060 A 
ATOM     17  C   UNL     1      30.783  -0.544  53.677  1.00  0.00     0.039 A 
BRANCH  15  18
ATOM     18  N   UNL     1      32.224   0.916  52.422  1.00  0.00    -0.306 N 
ATOM     19  C   UNL     1      32.866   0.501  51.256  1.00  0.00     0.116 A 
ATOM     20  C   UNL     1      33.148   1.638  53.066  1.00  0.00     0.204 A 
ATOM     21  C   UNL     1      34.123   0.997  51.268  1.00  0.00     0.056 A 
ATOM     22  N   UNL     1      34.269   1.732  52.392  1.00  0.00    -0.242 NA
ATOM     23  C   UNL     1      35.194   0.837  50.216  1.00  0.00     0.068 C 
ENDBRANCH  15  18
BRANCH  16  24
ATOM     24  C   UNL     1      29.348  -2.118  55.029  1.00  0.00     0.416 C 
ATOM     25  F   UNL     1      28.736  -3.156  54.423  1.00  0.00    -0.166 F 
ATOM     26  F   UNL     1      30.519  -2.647  55.363  1.00  0.00    -0.166 F 
ATOM     27  F   UNL     1      28.567  -1.877  56.102  1.00  0.00    -0.166 F 
ENDBRANCH  16  24
ENDBRANCH  10  12
ENDBRANCH   1   8
BRANCH   6  28
ATOM     28  N   UNL     1      23.441   4.535  53.965  1.00  0.00    -0.324 N 
ATOM     29  H   UNL     1      22.819   3.856  54.426  1.00  0.00     0.170 HD
BRANCH  28  30
ATOM     30  C   UNL     1      23.653   5.793  54.534  1.00  0.00     0.227 A 
ATOM     31  N   UNL     1      24.620   6.182  55.356  1.00  0.00    -0.221 NA
ATOM     32  N   UNL     1      22.620   6.592  54.162  1.00  0.00    -0.213 NA
ATOM     33  C   UNL     1      24.564   7.453  55.796  1.00  0.00     0.117 A 
ATOM     34  C   UNL     1      22.592   7.838  54.651  1.00  0.00     0.077 A 
ATOM     35  C   UNL     1      23.562   8.287  55.476  1.00  0.00     0.049 A 
BRANCH  34  36
ATOM     36  C   UNL     1      21.461   8.683  54.187  1.00  0.00     0.019 A 
ATOM     37  C   UNL     1      20.126   8.274  54.338  1.00  0.00     0.013 A 
ATOM     38  C   UNL     1      21.703   9.923  53.564  1.00  0.00     0.121 A 
ATOM     39  C   UNL     1      19.111   9.095  53.863  1.00  0.00     0.021 A 
ATOM     40  N   UNL     1      20.729  10.715  53.097  1.00  0.00    -0.264 NA
ATOM     41  C   UNL     1      19.461  10.311  53.278  1.00  0.00     0.111 A 
ENDBRANCH  34  36
ENDBRANCH  28  30
ENDBRANCH   6  28
TORSDOF 7
ENDMDL
MODEL 12
REMARK VINA RESULT:   -11.068      4.479      7.942
REMARK INTER + INTRA:         -14.145
REMARK INTER:                 -13.156
REMARK INTRA:                  -0.989
REMARK CONF_INDEPENDENT:        2.088
REMARK UNBOUND:                -0.989
REMARK SMILES Cc1cn(-c2cc(NC(=O)c3ccc(C)c(Nc4nccc(-c5cccnc5)n4)c3)cc(C(F)(F)F)c2)cn1
REMARK SMILES IDX 11 1 12 2 13 3 14 4 15 5 16 6 30 7 9 8 10 9 8 10 7 12 6 13
REMARK SMILES IDX 31 14 5 15 32 16 37 17 4 18 3 19 38 20 2 21 39 22 1 23 33 24
REMARK SMILES IDX 34 25 35 26 36 27 17 28 18 30 19 31 29 32 20 33 22 34 21 35
REMARK SMILES IDX 23 36 24 37 28 38 25 39 27 40 26 41
REMARK H PARENT 8 11 17 29
ROOT
ATOM      1  C   UNL     1      33.961  -0.743  50.933  1.00  0.00     0.042 A 
ATOM      2  C   UNL     1      34.005  -1.975  50.264  1.00  0.00     0.014 A 
ATOM      3  C   UNL     1      34.988  -2.251  49.313  1.00  0.00     0.006 A 
ATOM      4  C   UNL     1      35.909  -1.289  48.931  1.00  0.00    -0.027 A 
ATOM      5  C   UNL     1      36.971  -1.601  47.887  1.00  0.00     0.046 C 
ATOM      6  C   UNL     1      35.807  -0.028  49.517  1.00  0.00     0.045 A 
ATOM      7  C   UNL     1      34.829   0.221  50.488  1.00  0.00     0.040 A 
ENDROOT
BRANCH   1   8
ATOM      8  C   UNL     1      32.889  -0.321  51.855  1.00  0.00     0.255 C 
ATOM      9  O   UNL     1      33.170   0.589  52.597  1.00  0.00    -0.269 OA
ATOM     10  N   UNL     1      31.665  -0.810  51.602  1.00  0.00    -0.322 N 
ATOM     11  H   UNL     1      31.583  -1.488  50.832  1.00  0.00     0.170 HD
BRANCH  10  12
ATOM     12  C   UNL     1      30.500  -0.485  52.285  1.00  0.00     0.044 A 
ATOM     13  C   UNL     1      29.720   0.634  51.901  1.00  0.00     0.052 A 
ATOM     14  C   UNL     1      30.130  -1.191  53.451  1.00  0.00     0.039 A 
ATOM     15  C   UNL     1      28.541   0.963  52.575  1.00  0.00     0.049 A 
ATOM     16  C   UNL     1      28.916  -0.868  54.122  1.00  0.00     0.060 A 
ATOM     17  C   UNL     1      28.162   0.226  53.692  1.00  0.00     0.039 A 
BRANCH  15  18
ATOM     18  N   UNL     1      27.740   2.044  52.177  1.00  0.00    -0.306 N 
ATOM     19  C   UNL     1      26.804   2.761  52.920  1.00  0.00     0.116 A 
ATOM     20  C   UNL     1      27.645   2.560  50.946  1.00  0.00     0.204 A 
ATOM     21  C   UNL     1      26.212   3.658  52.101  1.00  0.00     0.056 A 
ATOM     22  N   UNL     1      26.775   3.539  50.878  1.00  0.00    -0.242 NA
ATOM     23  C   UNL     1      25.150   4.673  52.448  1.00  0.00     0.068 C 
ENDBRANCH  15  18
BRANCH  16  24
ATOM     24  C   UNL     1      28.519  -1.671  55.319  1.00  0.00     0.416 C 
ATOM     25  F   UNL     1      27.578  -2.608  55.088  1.00  0.00    -0.166 F 
ATOM     26  F   UNL     1      29.534  -2.403  55.761  1.00  0.00    -0.166 F 
ATOM     27  F   UNL     1      27.972  -0.909  56.289  1.00  0.00    -0.166 F 
ENDBRANCH  16  24
ENDBRANCH  10  12
ENDBRANCH   1   8
BRANCH   6  28
ATOM     28  N   UNL     1      36.821   0.906  49.271  1.00  0.00    -0.324 N 
ATOM     29  H   UNL     1      36.583   1.875  49.015  1.00  0.00     0.170 HD
BRANCH  28  30
ATOM     30  C   UNL     1      38.157   0.514  49.375  1.00  0.00     0.227 A 
ATOM     31  N   UNL     1      38.755  -0.152  50.355  1.00  0.00    -0.221 NA
ATOM     32  N   UNL     1      38.817   1.008  48.296  1.00  0.00    -0.213 NA
ATOM     33  C   UNL     1      40.078  -0.364  50.223  1.00  0.00     0.117 A 
ATOM     34  C   UNL     1      40.136   0.799  48.225  1.00  0.00     0.077 A 
ATOM     35  C   UNL     1      40.787   0.112  49.188  1.00  0.00     0.049 A 
BRANCH  34  36
ATOM     36  C   UNL     1      40.806   1.328  47.008  1.00  0.00     0.019 A 
ATOM     37  C   UNL     1      41.620   0.515  46.204  1.00  0.00     0.013 A 
ATOM     38  C   UNL     1      40.651   2.678  46.636  1.00  0.00     0.121 A 
ATOM     39  C   UNL     1      42.241   1.071  45.092  1.00  0.00     0.021 A 
ATOM     40  N   UNL     1      41.253   3.221  45.571  1.00  0.00    -0.264 NA
ATOM     41  C   UNL     1      42.005   2.415  44.805  1.00  0.00     0.111 A 
ENDBRANCH  34  36
ENDBRANCH  28  30
ENDBRANCH   6  28
TORSDOF 7
ENDMDL
MODEL 13
REMARK VINA RESULT:   -10.989      1.814      2.711
REMARK INTER + INTRA:         -14.317
REMARK INTER:                 -13.077
REMARK INTRA:                  -1.241
REMARK CONF_INDEPENDENT:        2.088
REMARK UNBOUND:                -1.241
REMARK SMILES Cc1cn(-c2cc(NC(=O)c3ccc(C)c(Nc4nccc(-c5cccnc5)n4)c3)cc(C(F)(F)F)c2)cn1
REMARK SMILES IDX 11 1 12 2 13 3 14 4 15 5 16 6 30 7 9 8 10 9 8 10 7 12 6 13
REMARK SMILES IDX 31 14 5 15 32 16 37 17 4 18 3 19 38 20 2 21 39 22 1 23 33 24
REMARK SMILES IDX 34 25 35 26 36 27 17 28 18 30 19 31 29 32 20 33 22 34 21 35
REMARK SMILES IDX 23 36 24 37 28 38 25 39 27 40 26 41
REMARK H PARENT 8 11 17 29
ROOT
ATOM      1  C   UNL     1      26.969   2.485  52.537  1.00  0.00     0.042 A 
ATOM      2  C   UNL     1      27.057   1.411  51.639  1.00  0.00     0.014 A 
ATOM      3  C   UNL     1      27.972   0.375  51.832  1.00  0.00     0.006 A 
ATOM      4  C   UNL     1      28.886   0.409  52.873  1.00  0.00    -0.027 A 
ATOM      5  C   UNL     1      29.884  -0.724  53.067  1.00  0.00     0.046 C 
ATOM      6  C   UNL     1      28.873   1.525  53.708  1.00  0.00     0.045 A 
ATOM      7  C   UNL     1      27.930   2.542  53.512  1.00  0.00     0.040 A 
ENDROOT
BRANCH   1   8
ATOM      8  C   UNL     1      26.124   3.680  52.342  1.00  0.00     0.255 C 
ATOM      9  O   UNL     1      26.023   4.064  51.202  1.00  0.00    -0.269 OA
ATOM     10  N   UNL     1      25.371   4.049  53.389  1.00  0.00    -0.322 N 
ATOM     11  H   UNL     1      25.490   3.515  54.262  1.00  0.00     0.170 HD
BRANCH  10  12
ATOM     12  C   UNL     1      24.446   5.085  53.404  1.00  0.00     0.044 A 
ATOM     13  C   UNL     1      23.714   5.390  54.579  1.00  0.00     0.052 A 
ATOM     14  C   UNL     1      24.127   5.780  52.217  1.00  0.00     0.039 A 
ATOM     15  C   UNL     1      22.789   6.437  54.607  1.00  0.00     0.049 A 
ATOM     16  C   UNL     1      23.200   6.861  52.253  1.00  0.00     0.060 A 
ATOM     17  C   UNL     1      22.522   7.147  53.441  1.00  0.00     0.039 A 
BRANCH  15  18
ATOM     18  N   UNL     1      22.090   6.773  55.776  1.00  0.00    -0.306 N 
ATOM     19  C   UNL     1      22.582   7.290  56.973  1.00  0.00     0.116 A 
ATOM     20  C   UNL     1      20.788   6.575  56.016  1.00  0.00     0.204 A 
ATOM     21  C   UNL     1      21.558   7.375  57.849  1.00  0.00     0.056 A 
ATOM     22  N   UNL     1      20.438   6.954  57.221  1.00  0.00    -0.242 NA
ATOM     23  C   UNL     1      21.589   7.892  59.267  1.00  0.00     0.068 C 
ENDBRANCH  15  18
BRANCH  16  24
ATOM     24  C   UNL     1      22.926   7.618  50.994  1.00  0.00     0.416 C 
ATOM     25  F   UNL     1      24.021   7.975  50.294  1.00  0.00    -0.166 F 
ATOM     26  F   UNL     1      22.272   6.865  50.117  1.00  0.00    -0.166 F 
ATOM     27  F   UNL     1      22.306   8.794  51.228  1.00  0.00    -0.166 F 
ENDBRANCH  16  24
ENDBRANCH  10  12
ENDBRANCH   1   8
BRANCH   6  28
ATOM     28  N   UNL     1      29.673   1.507  54.857  1.00  0.00    -0.324 N 
ATOM     29  H   UNL     1      29.317   1.097  55.732  1.00  0.00     0.170 HD
BRANCH  28  30
ATOM     30  C   UNL     1      30.959   2.049  54.808  1.00  0.00     0.227 A 
ATOM     31  N   UNL     1      31.452   3.084  55.475  1.00  0.00    -0.221 NA
ATOM     32  N   UNL     1      31.656   1.370  53.861  1.00  0.00    -0.213 NA
ATOM     33  C   UNL     1      32.726   3.429  55.204  1.00  0.00     0.117 A 
ATOM     34  C   UNL     1      32.907   1.769  53.603  1.00  0.00     0.077 A 
ATOM     35  C   UNL     1      33.460   2.806  54.269  1.00  0.00     0.049 A 
BRANCH  34  36
ATOM     36  C   UNL     1      33.639   0.972  52.585  1.00  0.00     0.019 A 
ATOM     37  C   UNL     1      33.016   0.536  51.405  1.00  0.00     0.013 A 
ATOM     38  C   UNL     1      34.987   0.616  52.788  1.00  0.00     0.121 A 
ATOM     39  C   UNL     1      33.742  -0.228  50.500  1.00  0.00     0.021 A 
ATOM     40  N   UNL     1      35.690  -0.126  51.923  1.00  0.00    -0.264 NA
ATOM     41  C   UNL     1      35.077  -0.508  50.791  1.00  0.00     0.111 A 
ENDBRANCH  34  36
ENDBRANCH  28  30
ENDBRANCH   6  28
TORSDOF 7
ENDMDL
MODEL 14
REMARK VINA RESULT:   -10.896      8.395     15.265
REMARK INTER + INTRA:         -14.279
REMARK INTER:                 -12.984
REMARK INTRA:                  -1.295
REMARK CONF_INDEPENDENT:        2.088
REMARK UNBOUND:                -1.295
REMARK SMILES Cc1cn(-c2cc(NC(=O)c3ccc(C)c(Nc4nccc(-c5cccnc5)n4)c3)cc(C(F)(F)F)c2)cn1
REMARK SMILES IDX 11 1 12 2 13 3 14 4 15 5 16 6 30 7 9 8 10 9 8 10 7 12 6 13
REMARK SMILES IDX 31 14 5 15 32 16 37 17 4 18 3 19 38 20 2 21 39 22 1 23 33 24
REMARK SMILES IDX 34 25 35 26 36 27 17 28 18 30 19 31 29 32 20 33 22 34 21 35
REMARK SMILES IDX 23 36 24 37 28 38 25 39 27 40 26 41
REMARK H PARENT 8 11 17 29
ROOT
ATOM      1  C   UNL     1      36.013  -1.623  49.245  1.00  0.00     0.042 A 
ATOM      2  C   UNL     1      35.245  -2.794  49.153  1.00  0.00     0.014 A 
ATOM      3  C   UNL     1      33.875  -2.787  49.420  1.00  0.00     0.006 A 
ATOM      4  C   UNL     1      33.236  -1.643  49.868  1.00  0.00    -0.027 A 
ATOM      5  C   UNL     1      31.743  -1.652  50.163  1.00  0.00     0.046 C 
ATOM      6  C   UNL     1      34.014  -0.502  50.061  1.00  0.00     0.045 A 
ATOM      7  C   UNL     1      35.382  -0.522  49.763  1.00  0.00     0.040 A 
ENDROOT
BRANCH   1   8
ATOM      8  C   UNL     1      37.481  -1.564  49.105  1.00  0.00     0.255 C 
ATOM      9  O   UNL     1      38.070  -1.052  50.026  1.00  0.00    -0.269 OA
ATOM     10  N   UNL     1      38.011  -2.297  48.114  1.00  0.00    -0.322 N 
ATOM     11  H   UNL     1      37.353  -2.786  47.491  1.00  0.00     0.170 HD
BRANCH  10  12
ATOM     12  C   UNL     1      39.366  -2.456  47.851  1.00  0.00     0.044 A 
ATOM     13  C   UNL     1      39.922  -2.027  46.620  1.00  0.00     0.052 A 
ATOM     14  C   UNL     1      40.195  -3.156  48.754  1.00  0.00     0.039 A 
ATOM     15  C   UNL     1      41.286  -2.174  46.350  1.00  0.00     0.049 A 
ATOM     16  C   UNL     1      41.588  -3.284  48.487  1.00  0.00     0.060 A 
ATOM     17  C   UNL     1      42.101  -2.821  47.273  1.00  0.00     0.039 A 
BRANCH  15  18
ATOM     18  N   UNL     1      41.854  -1.715  45.152  1.00  0.00    -0.306 N 
ATOM     19  C   UNL     1      42.149  -0.409  44.767  1.00  0.00     0.116 A 
ATOM     20  C   UNL     1      42.153  -2.450  44.074  1.00  0.00     0.204 A 
ATOM     21  C   UNL     1      42.606  -0.437  43.496  1.00  0.00     0.056 A 
ATOM     22  N   UNL     1      42.631  -1.726  43.092  1.00  0.00    -0.242 NA
ATOM     23  C   UNL     1      43.070   0.724  42.650  1.00  0.00     0.068 C 
ENDBRANCH  15  18
BRANCH  16  24
ATOM     24  C   UNL     1      42.454  -3.978  49.488  1.00  0.00     0.416 C 
ATOM     25  F   UNL     1      42.258  -5.308  49.587  1.00  0.00    -0.166 F 
ATOM     26  F   UNL     1      43.733  -3.914  49.138  1.00  0.00    -0.166 F 
ATOM     27  F   UNL     1      42.240  -3.535  50.744  1.00  0.00    -0.166 F 
ENDBRANCH  16  24
ENDBRANCH  10  12
ENDBRANCH   1   8
BRANCH   6  28
ATOM     28  N   UNL     1      33.366   0.705  50.355  1.00  0.00    -0.324 N 
ATOM     29  H   UNL     1      33.024   1.309  49.594  1.00  0.00     0.170 HD
BRANCH  28  30
ATOM     30  C   UNL     1      33.186   1.081  51.687  1.00  0.00     0.227 A 
ATOM     31  N   UNL     1      33.885   1.949  52.409  1.00  0.00    -0.221 NA
ATOM     32  N   UNL     1      32.177   0.328  52.196  1.00  0.00    -0.213 NA
ATOM     33  C   UNL     1      33.523   2.094  53.698  1.00  0.00     0.117 A 
ATOM     34  C   UNL     1      31.876   0.485  53.490  1.00  0.00     0.077 A 
ATOM     35  C   UNL     1      32.545   1.368  54.261  1.00  0.00     0.049 A 
BRANCH  34  36
ATOM     36  C   UNL     1      30.742  -0.337  53.989  1.00  0.00     0.019 A 
ATOM     37  C   UNL     1      29.656   0.242  54.666  1.00  0.00     0.013 A 
ATOM     38  C   UNL     1      30.735  -1.733  53.807  1.00  0.00     0.121 A 
ATOM     39  C   UNL     1      28.637  -0.577  55.132  1.00  0.00     0.021 A 
ATOM     40  N   UNL     1      29.759  -2.530  54.261  1.00  0.00    -0.264 NA
ATOM     41  C   UNL     1      28.721  -1.947  54.882  1.00  0.00     0.111 A 
ENDBRANCH  34  36
ENDBRANCH  28  30
ENDBRANCH   6  28
TORSDOF 7
ENDMDL
MODEL 15
REMARK VINA RESULT:   -10.838      4.159     11.128
REMARK INTER + INTRA:         -14.203
REMARK INTER:                 -12.926
REMARK INTRA:                  -1.277
REMARK CONF_INDEPENDENT:        2.088
REMARK UNBOUND:                -1.277
REMARK SMILES Cc1cn(-c2cc(NC(=O)c3ccc(C)c(Nc4nccc(-c5cccnc5)n4)c3)cc(C(F)(F)F)c2)cn1
REMARK SMILES IDX 11 1 12 2 13 3 14 4 15 5 16 6 30 7 9 8 10 9 8 10 7 12 6 13
REMARK SMILES IDX 31 14 5 15 32 16 37 17 4 18 3 19 38 20 2 21 39 22 1 23 33 24
REMARK SMILES IDX 34 25 35 26 36 27 17 28 18 30 19 31 29 32 20 33 22 34 21 35
REMARK SMILES IDX 23 36 24 37 28 38 25 39 27 40 26 41
REMARK H PARENT 8 11 17 29
ROOT
ATOM      1  C   UNL     1      25.662   3.714  51.881  1.00  0.00     0.042 A 
ATOM      2  C   UNL     1      24.855   3.703  50.734  1.00  0.00     0.014 A 
ATOM      3  C   UNL     1      23.516   4.094  50.784  1.00  0.00     0.006 A 
ATOM      4  C   UNL     1      22.909   4.428  51.984  1.00  0.00    -0.027 A 
ATOM      5  C   UNL     1      21.446   4.845  52.025  1.00  0.00     0.046 C 
ATOM      6  C   UNL     1      23.679   4.341  53.143  1.00  0.00     0.045 A 
ATOM      7  C   UNL     1      25.027   3.970  53.069  1.00  0.00     0.040 A 
ENDROOT
BRANCH   1   8
ATOM      8  C   UNL     1      27.044   3.199  51.945  1.00  0.00     0.255 C 
ATOM      9  O   UNL     1      27.644   3.193  50.897  1.00  0.00    -0.269 OA
ATOM     10  N   UNL     1      27.559   3.035  53.173  1.00  0.00    -0.322 N 
ATOM     11  H   UNL     1      26.933   3.217  53.970  1.00  0.00     0.170 HD
BRANCH  10  12
ATOM     12  C   UNL     1      28.859   2.644  53.467  1.00  0.00     0.044 A 
ATOM     13  C   UNL     1      29.512   1.651  52.695  1.00  0.00     0.052 A 
ATOM     14  C   UNL     1      29.515   3.139  54.615  1.00  0.00     0.039 A 
ATOM     15  C   UNL     1      30.823   1.258  52.978  1.00  0.00     0.049 A 
ATOM     16  C   UNL     1      30.859   2.754  54.888  1.00  0.00     0.060 A 
ATOM     17  C   UNL     1      31.476   1.794  54.083  1.00  0.00     0.039 A 
BRANCH  15  18
ATOM     18  N   UNL     1      31.493   0.307  52.194  1.00  0.00    -0.306 N 
ATOM     19  C   UNL     1      31.120  -0.236  50.965  1.00  0.00     0.116 A 
ATOM     20  C   UNL     1      32.609  -0.357  52.519  1.00  0.00     0.204 A 
ATOM     21  C   UNL     1      32.026  -1.178  50.627  1.00  0.00     0.056 A 
ATOM     22  N   UNL     1      32.968  -1.216  51.597  1.00  0.00    -0.242 NA
ATOM     23  C   UNL     1      32.062  -2.027  49.380  1.00  0.00     0.068 C 
ENDBRANCH  15  18
BRANCH  16  24
ATOM     24  C   UNL     1      31.550   3.340  56.076  1.00  0.00     0.416 C 
ATOM     25  F   UNL     1      31.650   2.519  57.140  1.00  0.00    -0.166 F 
ATOM     26  F   UNL     1      32.825   3.597  55.807  1.00  0.00    -0.166 F 
ATOM     27  F   UNL     1      30.900   4.415  56.569  1.00  0.00    -0.166 F 
ENDBRANCH  16  24
ENDBRANCH  10  12
ENDBRANCH   1   8
BRANCH   6  28
ATOM     28  N   UNL     1      23.138   4.827  54.341  1.00  0.00    -0.324 N 
ATOM     29  H   UNL     1      22.477   4.253  54.883  1.00  0.00     0.170 HD
BRANCH  28  30
ATOM     30  C   UNL     1      23.502   6.097  54.793  1.00  0.00     0.227 A 
ATOM     31  N   UNL     1      23.335   7.272  54.199  1.00  0.00    -0.221 NA
ATOM     32  N   UNL     1      24.163   5.941  55.969  1.00  0.00    -0.213 NA
ATOM     33  C   UNL     1      23.825   8.350  54.841  1.00  0.00     0.117 A 
ATOM     34  C   UNL     1      24.659   7.038  56.553  1.00  0.00     0.077 A 
ATOM     35  C   UNL     1      24.500   8.258  55.997  1.00  0.00     0.049 A 
BRANCH  34  36
ATOM     36  C   UNL     1      25.342   6.819  57.855  1.00  0.00     0.019 A 
ATOM     37  C   UNL     1      24.620   6.680  59.051  1.00  0.00     0.013 A 
ATOM     38  C   UNL     1      26.748   6.760  57.924  1.00  0.00     0.121 A 
ATOM     39  C   UNL     1      25.313   6.502  60.241  1.00  0.00     0.021 A 
ATOM     40  N   UNL     1      27.422   6.597  59.070  1.00  0.00    -0.264 NA
ATOM     41  C   UNL     1      26.705   6.441  60.195  1.00  0.00     0.111 A 
ENDBRANCH  34  36
ENDBRANCH  28  30
ENDBRANCH   6  28
TORSDOF 7
ENDMDL
MODEL 16
REMARK VINA RESULT:   -10.795      4.575      7.463
REMARK INTER + INTRA:         -13.726
REMARK INTER:                 -12.883
REMARK INTRA:                  -0.843
REMARK CONF_INDEPENDENT:        2.088
REMARK UNBOUND:                -0.843
REMARK SMILES Cc1cn(-c2cc(NC(=O)c3ccc(C)c(Nc4nccc(-c5cccnc5)n4)c3)cc(C(F)(F)F)c2)cn1
REMARK SMILES IDX 11 1 12 2 13 3 14 4 15 5 16 6 30 7 9 8 10 9 8 10 7 12 6 13
REMARK SMILES IDX 31 14 5 15 32 16 37 17 4 18 3 19 38 20 2 21 39 22 1 23 33 24
REMARK SMILES IDX 34 25 35 26 36 27 17 28 18 30 19 31 29 32 20 33 22 34 21 35
REMARK SMILES IDX 23 36 24 37 28 38 25 39 27 40 26 41
REMARK H PARENT 8 11 17 29
ROOT
ATOM      1  C   UNL     1      23.014   5.920  52.481  1.00  0.00     0.042 A 
ATOM      2  C   UNL     1      22.700   5.541  51.167  1.00  0.00     0.014 A 
ATOM      3  C   UNL     1      23.288   4.423  50.573  1.00  0.00     0.006 A 
ATOM      4  C   UNL     1      24.265   3.692  51.228  1.00  0.00    -0.027 A 
ATOM      5  C   UNL     1      24.903   2.479  50.565  1.00  0.00     0.046 C 
ATOM      6  C   UNL     1      24.656   4.125  52.494  1.00  0.00     0.045 A 
ATOM      7  C   UNL     1      24.036   5.234  53.083  1.00  0.00     0.040 A 
ENDROOT
BRANCH   1   8
ATOM      8  C   UNL     1      22.539   7.153  53.139  1.00  0.00     0.255 C 
ATOM      9  O   UNL     1      23.238   8.125  52.985  1.00  0.00    -0.269 OA
ATOM     10  N   UNL     1      21.284   7.126  53.612  1.00  0.00    -0.322 N 
ATOM     11  H   UNL     1      20.776   6.233  53.540  1.00  0.00     0.170 HD
BRANCH  10  12
ATOM     12  C   UNL     1      20.607   8.192  54.191  1.00  0.00     0.044 A 
ATOM     13  C   UNL     1      19.541   8.831  53.511  1.00  0.00     0.052 A 
ATOM     14  C   UNL     1      21.044   8.739  55.417  1.00  0.00     0.039 A 
ATOM     15  C   UNL     1      18.847   9.898  54.089  1.00  0.00     0.049 A 
ATOM     16  C   UNL     1      20.322   9.812  56.014  1.00  0.00     0.060 A 
ATOM     17  C   UNL     1      19.257  10.393  55.322  1.00  0.00     0.039 A 
BRANCH  15  18
ATOM     18  N   UNL     1      17.763  10.510  53.442  1.00  0.00    -0.306 N 
ATOM     19  C   UNL     1      16.430  10.580  53.843  1.00  0.00     0.116 A 
ATOM     20  C   UNL     1      17.773  11.087  52.235  1.00  0.00     0.204 A 
ATOM     21  C   UNL     1      15.727  11.193  52.865  1.00  0.00     0.056 A 
ATOM     22  N   UNL     1      16.591  11.531  51.882  1.00  0.00    -0.242 NA
ATOM     23  C   UNL     1      14.253  11.517  52.844  1.00  0.00     0.068 C 
ENDBRANCH  15  18
BRANCH  16  24
ATOM     24  C   UNL     1      20.770  10.332  57.341  1.00  0.00     0.416 C 
ATOM     25  F   UNL     1      21.580  11.408  57.287  1.00  0.00    -0.166 F 
ATOM     26  F   UNL     1      19.743  10.797  58.043  1.00  0.00    -0.166 F 
ATOM     27  F   UNL     1      21.497   9.427  58.028  1.00  0.00    -0.166 F 
ENDBRANCH  16  24
ENDBRANCH  10  12
ENDBRANCH   1   8
BRANCH   6  28
ATOM     28  N   UNL     1      25.520   3.312  53.239  1.00  0.00    -0.324 N 
ATOM     29  H   UNL     1      25.259   3.009  54.188  1.00  0.00     0.170 HD
BRANCH  28  30
ATOM     30  C   UNL     1      26.739   2.915  52.684  1.00  0.00     0.227 A 
ATOM     31  N   UNL     1      27.414   3.462  51.681  1.00  0.00    -0.221 NA
ATOM     32  N   UNL     1      27.123   1.772  53.308  1.00  0.00    -0.213 NA
ATOM     33  C   UNL     1      28.554   2.847  51.312  1.00  0.00     0.117 A 
ATOM     34  C   UNL     1      28.246   1.180  52.886  1.00  0.00     0.077 A 
ATOM     35  C   UNL     1      28.977   1.707  51.880  1.00  0.00     0.049 A 
BRANCH  34  36
ATOM     36  C   UNL     1      28.641  -0.048  53.624  1.00  0.00     0.019 A 
ATOM     37  C   UNL     1      27.906  -0.512  54.726  1.00  0.00     0.013 A 
ATOM     38  C   UNL     1      29.785  -0.776  53.240  1.00  0.00     0.121 A 
ATOM     39  C   UNL     1      28.337  -1.652  55.393  1.00  0.00     0.021 A 
ATOM     40  N   UNL     1      30.209  -1.871  53.884  1.00  0.00    -0.264 NA
ATOM     41  C   UNL     1      29.473  -2.307  54.919  1.00  0.00     0.111 A 
ENDBRANCH  34  36
ENDBRANCH  28  30
ENDBRANCH   6  28
TORSDOF 7
ENDMDL
MODEL 17
REMARK VINA RESULT:   -10.773      4.667     13.501
REMARK INTER + INTRA:         -14.233
REMARK INTER:                 -12.861
REMARK INTRA:                  -1.371
REMARK CONF_INDEPENDENT:        2.088
REMARK UNBOUND:                -1.371
REMARK SMILES Cc1cn(-c2cc(NC(=O)c3ccc(C)c(Nc4nccc(-c5cccnc5)n4)c3)cc(C(F)(F)F)c2)cn1
REMARK SMILES IDX 11 1 12 2 13 3 14 4 15 5 16 6 30 7 9 8 10 9 8 10 7 12 6 13
REMARK SMILES IDX 31 14 5 15 32 16 37 17 4 18 3 19 38 20 2 21 39 22 1 23 33 24
REMARK SMILES IDX 34 25 35 26 36 27 17 28 18 30 19 31 29 32 20 33 22 34 21 35
REMARK SMILES IDX 23 36 24 37 28 38 25 39 27 40 26 41
REMARK H PARENT 8 11 17 29
ROOT
ATOM      1  C   UNL     1      21.059   7.325  54.267  1.00  0.00     0.042 A 
ATOM      2  C   UNL     1      20.932   7.494  55.653  1.00  0.00     0.014 A 
ATOM      3  C   UNL     1      20.215   8.564  56.193  1.00  0.00     0.006 A 
ATOM      4  C   UNL     1      19.672   9.546  55.381  1.00  0.00    -0.027 A 
ATOM      5  C   UNL     1      18.899  10.711  55.984  1.00  0.00     0.046 C 
ATOM      6  C   UNL     1      19.883   9.440  54.008  1.00  0.00     0.045 A 
ATOM      7  C   UNL     1      20.584   8.346  53.484  1.00  0.00     0.040 A 
ENDROOT
BRANCH   1   8
ATOM      8  C   UNL     1      21.899   6.301  53.615  1.00  0.00     0.255 C 
ATOM      9  O   UNL     1      21.829   5.194  54.090  1.00  0.00    -0.269 OA
ATOM     10  N   UNL     1      22.441   6.643  52.437  1.00  0.00    -0.322 N 
ATOM     11  H   UNL     1      22.285   7.608  52.113  1.00  0.00     0.170 HD
BRANCH  10  12
ATOM     12  C   UNL     1      23.194   5.815  51.614  1.00  0.00     0.044 A 
ATOM     13  C   UNL     1      24.293   5.084  52.128  1.00  0.00     0.052 A 
ATOM     14  C   UNL     1      22.955   5.777  50.222  1.00  0.00     0.039 A 
ATOM     15  C   UNL     1      25.050   4.240  51.310  1.00  0.00     0.049 A 
ATOM     16  C   UNL     1      23.713   4.900  49.395  1.00  0.00     0.060 A 
ATOM     17  C   UNL     1      24.770   4.173  49.949  1.00  0.00     0.039 A 
BRANCH  15  18
ATOM     18  N   UNL     1      26.114   3.480  51.818  1.00  0.00    -0.306 N 
ATOM     19  C   UNL     1      26.495   3.283  53.144  1.00  0.00     0.116 A 
ATOM     20  C   UNL     1      27.057   2.847  51.109  1.00  0.00     0.204 A 
ATOM     21  C   UNL     1      27.628   2.548  53.153  1.00  0.00     0.056 A 
ATOM     22  N   UNL     1      27.945   2.258  51.871  1.00  0.00    -0.242 NA
ATOM     23  C   UNL     1      28.411   2.062  54.349  1.00  0.00     0.068 C 
ENDBRANCH  15  18
BRANCH  16  24
ATOM     24  C   UNL     1      23.400   4.835  47.935  1.00  0.00     0.416 C 
ATOM     25  F   UNL     1      24.269   5.484  47.136  1.00  0.00    -0.166 F 
ATOM     26  F   UNL     1      23.489   3.589  47.484  1.00  0.00    -0.166 F 
ATOM     27  F   UNL     1      22.214   5.407  47.639  1.00  0.00    -0.166 F 
ENDBRANCH  16  24
ENDBRANCH  10  12
ENDBRANCH   1   8
BRANCH   6  28
ATOM     28  N   UNL     1      19.209  10.327  53.159  1.00  0.00    -0.324 N 
ATOM     29  H   UNL     1      19.737  10.921  52.503  1.00  0.00     0.170 HD
BRANCH  28  30
ATOM     30  C   UNL     1      17.816  10.400  53.208  1.00  0.00     0.227 A 
ATOM     31  N   UNL     1      17.037  11.473  53.164  1.00  0.00    -0.221 NA
ATOM     32  N   UNL     1      17.344   9.141  53.396  1.00  0.00    -0.213 NA
ATOM     33  C   UNL     1      15.711  11.264  53.276  1.00  0.00     0.117 A 
ATOM     34  C   UNL     1      16.022   8.987  53.534  1.00  0.00     0.077 A 
ATOM     35  C   UNL     1      15.186  10.046  53.479  1.00  0.00     0.049 A 
BRANCH  34  36
ATOM     36  C   UNL     1      15.553   7.587  53.703  1.00  0.00     0.019 A 
ATOM     37  C   UNL     1      14.769   7.201  54.802  1.00  0.00     0.013 A 
ATOM     38  C   UNL     1      15.899   6.598  52.761  1.00  0.00     0.121 A 
ATOM     39  C   UNL     1      14.381   5.872  54.921  1.00  0.00     0.021 A 
ATOM     40  N   UNL     1      15.534   5.315  52.874  1.00  0.00    -0.264 NA
ATOM     41  C   UNL     1      14.764   4.978  53.922  1.00  0.00     0.111 A 
ENDBRANCH  34  36
ENDBRANCH  28  30
ENDBRANCH   6  28
TORSDOF 7
ENDMDL
MODEL 18
REMARK VINA RESULT:   -10.727      3.807     11.815
REMARK INTER + INTRA:         -13.962
REMARK INTER:                 -12.815
REMARK INTRA:                  -1.146
REMARK CONF_INDEPENDENT:        2.088
REMARK UNBOUND:                -1.146
REMARK SMILES Cc1cn(-c2cc(NC(=O)c3ccc(C)c(Nc4nccc(-c5cccnc5)n4)c3)cc(C(F)(F)F)c2)cn1
REMARK SMILES IDX 11 1 12 2 13 3 14 4 15 5 16 6 30 7 9 8 10 9 8 10 7 12 6 13
REMARK SMILES IDX 31 14 5 15 32 16 37 17 4 18 3 19 38 20 2 21 39 22 1 23 33 24
REMARK SMILES IDX 34 25 35 26 36 27 17 28 18 30 19 31 29 32 20 33 22 34 21 35
REMARK SMILES IDX 23 36 24 37 28 38 25 39 27 40 26 41
REMARK H PARENT 8 11 17 29
ROOT
ATOM      1  C   UNL     1      25.663   3.587  51.858  1.00  0.00     0.042 A 
ATOM      2  C   UNL     1      24.817   3.491  50.744  1.00  0.00     0.014 A 
ATOM      3  C   UNL     1      23.492   3.928  50.797  1.00  0.00     0.006 A 
ATOM      4  C   UNL     1      22.937   4.397  51.976  1.00  0.00    -0.027 A 
ATOM      5  C   UNL     1      21.489   4.863  52.021  1.00  0.00     0.046 C 
ATOM      6  C   UNL     1      23.743   4.398  53.114  1.00  0.00     0.045 A 
ATOM      7  C   UNL     1      25.077   3.979  53.034  1.00  0.00     0.040 A 
ENDROOT
BRANCH   1   8
ATOM      8  C   UNL     1      27.031   3.036  51.929  1.00  0.00     0.255 C 
ATOM      9  O   UNL     1      27.561   2.826  50.865  1.00  0.00    -0.269 OA
ATOM     10  N   UNL     1      27.620   3.067  53.134  1.00  0.00    -0.322 N 
ATOM     11  H   UNL     1      27.052   3.407  53.923  1.00  0.00     0.170 HD
BRANCH  10  12
ATOM     12  C   UNL     1      28.924   2.681  53.415  1.00  0.00     0.044 A 
ATOM     13  C   UNL     1      29.590   1.726  52.607  1.00  0.00     0.052 A 
ATOM     14  C   UNL     1      29.573   3.140  54.581  1.00  0.00     0.039 A 
ATOM     15  C   UNL     1      30.906   1.339  52.876  1.00  0.00     0.049 A 
ATOM     16  C   UNL     1      30.922   2.762  54.841  1.00  0.00     0.060 A 
ATOM     17  C   UNL     1      31.551   1.841  54.001  1.00  0.00     0.039 A 
BRANCH  15  18
ATOM     18  N   UNL     1      31.588   0.426  52.057  1.00  0.00    -0.306 N 
ATOM     19  C   UNL     1      31.126  -0.258  50.934  1.00  0.00     0.116 A 
ATOM     20  C   UNL     1      32.823  -0.054  52.248  1.00  0.00     0.204 A 
ATOM     21  C   UNL     1      32.102  -1.095  50.519  1.00  0.00     0.056 A 
ATOM     22  N   UNL     1      33.167  -0.928  51.335  1.00  0.00    -0.242 NA
ATOM     23  C   UNL     1      32.083  -2.029  49.333  1.00  0.00     0.068 C 
ENDBRANCH  15  18
BRANCH  16  24
ATOM     24  C   UNL     1      31.605   3.311  56.051  1.00  0.00     0.416 C 
ATOM     25  F   UNL     1      31.652   2.475  57.107  1.00  0.00    -0.166 F 
ATOM     26  F   UNL     1      32.893   3.528  55.815  1.00  0.00    -0.166 F 
ATOM     27  F   UNL     1      30.980   4.401  56.543  1.00  0.00    -0.166 F 
ENDBRANCH  16  24
ENDBRANCH  10  12
ENDBRANCH   1   8
BRANCH   6  28
ATOM     28  N   UNL     1      23.258   5.016  54.273  1.00  0.00    -0.324 N 
ATOM     29  H   UNL     1      22.347   4.742  54.666  1.00  0.00     0.170 HD
BRANCH  28  30
ATOM     30  C   UNL     1      24.022   6.008  54.894  1.00  0.00     0.227 A 
ATOM     31  N   UNL     1      25.236   6.442  54.580  1.00  0.00    -0.221 NA
ATOM     32  N   UNL     1      23.331   6.439  55.981  1.00  0.00    -0.213 NA
ATOM     33  C   UNL     1      25.766   7.387  55.379  1.00  0.00     0.117 A 
ATOM     34  C   UNL     1      23.913   7.356  56.762  1.00  0.00     0.077 A 
ATOM     35  C   UNL     1      25.139   7.842  56.475  1.00  0.00     0.049 A 
BRANCH  34  36
ATOM     36  C   UNL     1      23.103   7.821  57.919  1.00  0.00     0.019 A 
ATOM     37  C   UNL     1      23.348   7.359  59.222  1.00  0.00     0.013 A 
ATOM     38  C   UNL     1      22.048   8.735  57.731  1.00  0.00     0.121 A 
ATOM     39  C   UNL     1      22.542   7.809  60.260  1.00  0.00     0.021 A 
ATOM     40  N   UNL     1      21.263   9.166  58.727  1.00  0.00    -0.264 NA
ATOM     41  C   UNL     1      21.536   8.728  59.967  1.00  0.00     0.111 A 
ENDBRANCH  34  36
ENDBRANCH  28  30
ENDBRANCH   6  28
TORSDOF 7
ENDMDL
MODEL 19
REMARK VINA RESULT:   -10.651      3.566     12.132
REMARK INTER + INTRA:         -14.021
REMARK INTER:                 -12.739
REMARK INTRA:                  -1.281
REMARK CONF_INDEPENDENT:        2.088
REMARK UNBOUND:                -1.281
REMARK SMILES Cc1cn(-c2cc(NC(=O)c3ccc(C)c(Nc4nccc(-c5cccnc5)n4)c3)cc(C(F)(F)F)c2)cn1
REMARK SMILES IDX 11 1 12 2 13 3 14 4 15 5 16 6 30 7 9 8 10 9 8 10 7 12 6 13
REMARK SMILES IDX 31 14 5 15 32 16 37 17 4 18 3 19 38 20 2 21 39 22 1 23 33 24
REMARK SMILES IDX 34 25 35 26 36 27 17 28 18 30 19 31 29 32 20 33 22 34 21 35
REMARK SMILES IDX 23 36 24 37 28 38 25 39 27 40 26 41
REMARK H PARENT 8 11 17 29
ROOT
ATOM      1  C   UNL     1      25.674   3.728  51.910  1.00  0.00     0.042 A 
ATOM      2  C   UNL     1      25.008   4.021  50.711  1.00  0.00     0.014 A 
ATOM      3  C   UNL     1      23.691   4.486  50.706  1.00  0.00     0.006 A 
ATOM      4  C   UNL     1      22.964   4.595  51.881  1.00  0.00    -0.027 A 
ATOM      5  C   UNL     1      21.527   5.096  51.859  1.00  0.00     0.046 C 
ATOM      6  C   UNL     1      23.587   4.207  53.065  1.00  0.00     0.045 A 
ATOM      7  C   UNL     1      24.917   3.767  53.052  1.00  0.00     0.040 A 
ENDROOT
BRANCH   1   8
ATOM      8  C   UNL     1      27.014   3.115  52.002  1.00  0.00     0.255 C 
ATOM      9  O   UNL     1      27.531   2.838  50.947  1.00  0.00    -0.269 OA
ATOM     10  N   UNL     1      27.607   3.166  53.204  1.00  0.00    -0.322 N 
ATOM     11  H   UNL     1      27.058   3.564  53.980  1.00  0.00     0.170 HD
BRANCH  10  12
ATOM     12  C   UNL     1      28.892   2.729  53.500  1.00  0.00     0.044 A 
ATOM     13  C   UNL     1      29.510   1.713  52.729  1.00  0.00     0.052 A 
ATOM     14  C   UNL     1      29.565   3.202  54.647  1.00  0.00     0.039 A 
ATOM     15  C   UNL     1      30.806   1.274  53.013  1.00  0.00     0.049 A 
ATOM     16  C   UNL     1      30.894   2.770  54.921  1.00  0.00     0.060 A 
ATOM     17  C   UNL     1      31.477   1.788  54.117  1.00  0.00     0.039 A 
BRANCH  15  18
ATOM     18  N   UNL     1      31.442   0.298  52.230  1.00  0.00    -0.306 N 
ATOM     19  C   UNL     1      32.742   0.289  51.728  1.00  0.00     0.116 A 
ATOM     20  C   UNL     1      30.886  -0.807  51.719  1.00  0.00     0.204 A 
ATOM     21  C   UNL     1      32.890  -0.811  50.958  1.00  0.00     0.056 A 
ATOM     22  N   UNL     1      31.727  -1.500  50.991  1.00  0.00    -0.242 NA
ATOM     23  C   UNL     1      34.122  -1.267  50.216  1.00  0.00     0.068 C 
ENDBRANCH  15  18
BRANCH  16  24
ATOM     24  C   UNL     1      31.606   3.333  56.109  1.00  0.00     0.416 C 
ATOM     25  F   UNL     1      31.658   2.517  57.180  1.00  0.00    -0.166 F 
ATOM     26  F   UNL     1      32.893   3.526  55.846  1.00  0.00    -0.166 F 
ATOM     27  F   UNL     1      31.005   4.442  56.588  1.00  0.00    -0.166 F 
ENDBRANCH  16  24
ENDBRANCH  10  12
ENDBRANCH   1   8
BRANCH   6  28
ATOM     28  N   UNL     1      22.932   4.461  54.277  1.00  0.00    -0.324 N 
ATOM     29  H   UNL     1      22.368   3.726  54.727  1.00  0.00     0.170 HD
BRANCH  28  30
ATOM     30  C   UNL     1      23.051   5.719  54.871  1.00  0.00     0.227 A 
ATOM     31  N   UNL     1      23.901   6.120  55.808  1.00  0.00    -0.221 NA
ATOM     32  N   UNL     1      22.059   6.503  54.377  1.00  0.00    -0.213 NA
ATOM     33  C   UNL     1      23.770   7.388  56.241  1.00  0.00     0.117 A 
ATOM     34  C   UNL     1      21.948   7.745  54.862  1.00  0.00     0.077 A 
ATOM     35  C   UNL     1      22.801   8.206  55.802  1.00  0.00     0.049 A 
BRANCH  34  36
ATOM     36  C   UNL     1      20.869   8.574  54.264  1.00  0.00     0.019 A 
ATOM     37  C   UNL     1      21.143   9.544  53.286  1.00  0.00     0.013 A 
ATOM     38  C   UNL     1      19.533   8.416  54.679  1.00  0.00     0.121 A 
ATOM     39  C   UNL     1      20.098  10.307  52.781  1.00  0.00     0.021 A 
ATOM     40  N   UNL     1      18.522   9.154  54.201  1.00  0.00    -0.264 NA
ATOM     41  C   UNL     1      18.809  10.057  53.249  1.00  0.00     0.111 A 
ENDBRANCH  34  36
ENDBRANCH  28  30
ENDBRANCH   6  28
TORSDOF 7
ENDMDL
MODEL 20
REMARK VINA RESULT:   -10.584      8.243     14.926
REMARK INTER + INTRA:         -14.029
REMARK INTER:                 -12.672
REMARK INTRA:                  -1.358
REMARK CONF_INDEPENDENT:        2.088
REMARK UNBOUND:                -1.358
REMARK SMILES Cc1cn(-c2cc(NC(=O)c3ccc(C)c(Nc4nccc(-c5cccnc5)n4)c3)cc(C(F)(F)F)c2)cn1
REMARK SMILES IDX 11 1 12 2 13 3 14 4 15 5 16 6 30 7 9 8 10 9 8 10 7 12 6 13
REMARK SMILES IDX 31 14 5 15 32 16 37 17 4 18 3 19 38 20 2 21 39 22 1 23 33 24
REMARK SMILES IDX 34 25 35 26 36 27 17 28 18 30 19 31 29 32 20 33 22 34 21 35
REMARK SMILES IDX 23 36 24 37 28 38 25 39 27 40 26 41
REMARK H PARENT 8 11 17 29
ROOT
ATOM      1  C   UNL     1      36.128  -1.573  49.514  1.00  0.00     0.042 A 
ATOM      2  C   UNL     1      35.443  -2.777  49.286  1.00  0.00     0.014 A 
ATOM      3  C   UNL     1      34.053  -2.853  49.386  1.00  0.00     0.006 A 
ATOM      4  C   UNL     1      33.302  -1.763  49.794  1.00  0.00    -0.027 A 
ATOM      5  C   UNL     1      31.787  -1.862  49.906  1.00  0.00     0.046 C 
ATOM      6  C   UNL     1      33.985  -0.593  50.122  1.00  0.00     0.045 A 
ATOM      7  C   UNL     1      35.378  -0.530  49.991  1.00  0.00     0.040 A 
ENDROOT
BRANCH   1   8
ATOM      8  C   UNL     1      37.596  -1.433  49.554  1.00  0.00     0.255 C 
ATOM      9  O   UNL     1      38.016  -0.594  50.314  1.00  0.00    -0.269 OA
ATOM     10  N   UNL     1      38.300  -2.402  48.950  1.00  0.00    -0.322 N 
ATOM     11  H   UNL     1      37.765  -3.127  48.451  1.00  0.00     0.170 HD
BRANCH  10  12
ATOM     12  C   UNL     1      39.685  -2.517  48.936  1.00  0.00     0.044 A 
ATOM     13  C   UNL     1      40.428  -2.510  50.142  1.00  0.00     0.052 A 
ATOM     14  C   UNL     1      40.392  -2.522  47.714  1.00  0.00     0.039 A 
ATOM     15  C   UNL     1      41.820  -2.635  50.139  1.00  0.00     0.049 A 
ATOM     16  C   UNL     1      41.808  -2.672  47.712  1.00  0.00     0.060 A 
ATOM     17  C   UNL     1      42.499  -2.691  48.926  1.00  0.00     0.039 A 
BRANCH  15  18
ATOM     18  N   UNL     1      42.561  -2.671  51.329  1.00  0.00    -0.306 N 
ATOM     19  C   UNL     1      42.542  -3.626  52.344  1.00  0.00     0.116 A 
ATOM     20  C   UNL     1      43.390  -1.725  51.786  1.00  0.00     0.204 A 
ATOM     21  C   UNL     1      43.355  -3.204  53.336  1.00  0.00     0.056 A 
ATOM     22  N   UNL     1      43.901  -2.028  52.954  1.00  0.00    -0.242 NA
ATOM     23  C   UNL     1      43.677  -3.904  54.635  1.00  0.00     0.068 C 
ENDBRANCH  15  18
BRANCH  16  24
ATOM     24  C   UNL     1      42.526  -2.735  46.403  1.00  0.00     0.416 C 
ATOM     25  F   UNL     1      43.532  -1.850  46.262  1.00  0.00    -0.166 F 
ATOM     26  F   UNL     1      43.157  -3.894  46.260  1.00  0.00    -0.166 F 
ATOM     27  F   UNL     1      41.715  -2.457  45.360  1.00  0.00    -0.166 F 
ENDBRANCH  16  24
ENDBRANCH  10  12
ENDBRANCH   1   8
BRANCH   6  28
ATOM     28  N   UNL     1      33.240   0.565  50.379  1.00  0.00    -0.324 N 
ATOM     29  H   UNL     1      32.835   1.105  49.601  1.00  0.00     0.170 HD
BRANCH  28  30
ATOM     30  C   UNL     1      33.051   0.981  51.698  1.00  0.00     0.227 A 
ATOM     31  N   UNL     1      33.731   1.886  52.391  1.00  0.00    -0.221 NA
ATOM     32  N   UNL     1      32.056   0.225  52.230  1.00  0.00    -0.213 NA
ATOM     33  C   UNL     1      33.365   2.066  53.675  1.00  0.00     0.117 A 
ATOM     34  C   UNL     1      31.749   0.418  53.518  1.00  0.00     0.077 A 
ATOM     35  C   UNL     1      32.400   1.339  54.260  1.00  0.00     0.049 A 
BRANCH  34  36
ATOM     36  C   UNL     1      30.630  -0.408  54.042  1.00  0.00     0.019 A 
ATOM     37  C   UNL     1      29.532   0.171  54.697  1.00  0.00     0.013 A 
ATOM     38  C   UNL     1      30.652  -1.810  53.907  1.00  0.00     0.121 A 
ATOM     39  C   UNL     1      28.528  -0.653  55.189  1.00  0.00     0.021 A 
ATOM     40  N   UNL     1      29.691  -2.610  54.386  1.00  0.00    -0.264 NA
ATOM     41  C   UNL     1      28.640  -2.027  54.985  1.00  0.00     0.111 A 
ENDBRANCH  34  36
ENDBRANCH  28  30
ENDBRANCH   6  28
TORSDOF 7
ENDMDL
