MODEL 1
REMARK VINA RESULT:   -14.412      0.000      0.000
REMARK INTER + INTRA:         -17.669
REMARK INTER:                 -16.500
REMARK INTRA:                  -1.169
REMARK CONF_INDEPENDENT:        2.088
REMARK UNBOUND:                -1.169
REMARK SMILES Cc1cn(-c2cc(NC(=O)c3ccc(C)c(Nc4nccc(-c5cccnc5)n4)c3)cc(C(F)(F)F)c2)cn1
REMARK SMILES IDX 11 1 12 2 13 3 14 4 15 5 16 6 30 7 9 8 10 9 8 10 7 12 6 13
REMARK SMILES IDX 31 14 5 15 32 16 37 17 4 18 3 19 38 20 2 21 39 22 1 23 33 24
REMARK SMILES IDX 34 25 35 26 36 27 17 28 18 30 19 31 29 32 20 33 22 34 21 35
REMARK SMILES IDX 23 36 24 37 28 38 25 39 27 40 26 41
REMARK H PARENT 8 11 17 29
ROOT
ATOM      1  C   UNL     1      27.953   1.727  53.052  1.00  0.00     0.042 A 
ATOM      2  C   UNL     1      27.662   1.187  54.314  1.00  0.00     0.014 A 
ATOM      3  C   UNL     1      28.379   0.104  54.824  1.00  0.00     0.006 A 
ATOM      4  C   UNL     1      29.352  -0.533  54.071  1.00  0.00    -0.027 A 
ATOM      5  C   UNL     1      30.121  -1.718  54.638  1.00  0.00     0.046 C 
ATOM      6  C   UNL     1      29.574  -0.066  52.776  1.00  0.00     0.045 A 
ATOM      7  C   UNL     1      28.861   1.037  52.292  1.00  0.00     0.040 A 
ENDROOT
BRANCH   1   8
ATOM      8  C   UNL     1      27.166   2.783  52.385  1.00  0.00     0.255 C 
ATOM      9  O   UNL     1      27.463   3.002  51.235  1.00  0.00    -0.269 OA
ATOM     10  N   UNL     1      26.065   3.197  53.029  1.00  0.00    -0.322 N 
ATOM     11  H   UNL     1      25.892   2.798  53.963  1.00  0.00     0.170 HD
BRANCH  10  12
ATOM     12  C   UNL     1      25.138   4.116  52.553  1.00  0.00     0.044 A 
ATOM     13  C   UNL     1      24.219   4.743  53.430  1.00  0.00     0.052 A 
ATOM     14  C   UNL     1      25.011   4.354  51.167  1.00  0.00     0.039 A 
ATOM     15  C   UNL     1      23.289   5.675  52.962  1.00  0.00     0.049 A 
ATOM     16  C   UNL     1      24.078   5.321  50.695  1.00  0.00     0.060 A 
ATOM     17  C   UNL     1      23.211   5.939  51.598  1.00  0.00     0.039 A 
BRANCH  15  18
ATOM     18  N   UNL     1      22.404   6.333  53.829  1.00  0.00    -0.306 N 
ATOM     19  C   UNL     1      22.130   6.066  55.169  1.00  0.00     0.116 A 
ATOM     20  C   UNL     1      21.554   7.317  53.511  1.00  0.00     0.204 A 
ATOM     21  C   UNL     1      21.146   6.900  55.573  1.00  0.00     0.056 A 
ATOM     22  N   UNL     1      20.823   7.696  54.530  1.00  0.00    -0.242 NA
ATOM     23  C   UNL     1      20.522   7.005  56.943  1.00  0.00     0.068 C 
ENDBRANCH  15  18
BRANCH  16  24
ATOM     24  C   UNL     1      24.006   5.597  49.228  1.00  0.00     0.416 C 
ATOM     25  F   UNL     1      24.900   6.497  48.773  1.00  0.00    -0.166 F 
ATOM     26  F   UNL     1      24.320   4.517  48.523  1.00  0.00    -0.166 F 
ATOM     27  F   UNL     1      22.818   6.123  48.863  1.00  0.00    -0.166 F 
ENDBRANCH  16  24
ENDBRANCH  10  12
ENDBRANCH   1   8
BRANCH   6  28
ATOM     28  N   UNL     1      30.659  -0.586  52.058  1.00  0.00    -0.324 N 
ATOM     29  H   UNL     1      30.525  -1.383  51.419  1.00  0.00     0.170 HD
BRANCH  28  30
ATOM     30  C   UNL     1      31.923  -0.015  52.214  1.00  0.00     0.227 A 
ATOM     31  N   UNL     1      32.307   0.940  53.051  1.00  0.00    -0.221 NA
ATOM     32  N   UNL     1      32.739  -0.557  51.274  1.00  0.00    -0.213 NA
ATOM     33  C   UNL     1      33.589   1.343  52.964  1.00  0.00     0.117 A 
ATOM     34  C   UNL     1      33.996  -0.102  51.204  1.00  0.00     0.077 A 
ATOM     35  C   UNL     1      34.439   0.856  52.046  1.00  0.00     0.049 A 
BRANCH  34  36
ATOM     36  C   UNL     1      34.858  -0.752  50.183  1.00  0.00     0.019 A 
ATOM     37  C   UNL     1      36.183  -0.339  49.968  1.00  0.00     0.013 A 
ATOM     38  C   UNL     1      34.357  -1.800  49.386  1.00  0.00     0.121 A 
ATOM     39  C   UNL     1      36.934  -0.966  48.982  1.00  0.00     0.021 A 
ATOM     40  N   UNL     1      35.074  -2.403  48.429  1.00  0.00    -0.264 NA
ATOM     41  C   UNL     1      36.346  -2.005  48.262  1.00  0.00     0.111 A 
ENDBRANCH  34  36
ENDBRANCH  28  30
ENDBRANCH   6  28
TORSDOF 7
ENDMDL
MODEL 2
REMARK VINA RESULT:   -12.867      2.318      3.594
REMARK INTER + INTRA:         -16.122
REMARK INTER:                 -14.955
REMARK INTRA:                  -1.167
REMARK CONF_INDEPENDENT:        2.088
REMARK UNBOUND:                -1.167
REMARK SMILES Cc1cn(-c2cc(NC(=O)c3ccc(C)c(Nc4nccc(-c5cccnc5)n4)c3)cc(C(F)(F)F)c2)cn1
REMARK SMILES IDX 11 1 12 2 13 3 14 4 15 5 16 6 30 7 9 8 10 9 8 10 7 12 6 13
REMARK SMILES IDX 31 14 5 15 32 16 37 17 4 18 3 19 38 20 2 21 39 22 1 23 33 24
REMARK SMILES IDX 34 25 35 26 36 27 17 28 18 30 19 31 29 32 20 33 22 34 21 35
REMARK SMILES IDX 23 36 24 37 28 38 25 39 27 40 26 41
REMARK H PARENT 8 11 17 29
ROOT
ATOM      1  C   UNL     1      28.223   1.500  53.056  1.00  0.00     0.042 A 
ATOM      2  C   UNL     1      28.005   0.862  54.286  1.00  0.00     0.014 A 
ATOM      3  C   UNL     1      28.776  -0.231  54.685  1.00  0.00     0.006 A 
ATOM      4  C   UNL     1      29.730  -0.782  53.845  1.00  0.00    -0.027 A 
ATOM      5  C   UNL     1      30.558  -1.979  54.290  1.00  0.00     0.046 C 
ATOM      6  C   UNL     1      29.880  -0.218  52.579  1.00  0.00     0.045 A 
ATOM      7  C   UNL     1      29.114   0.895  52.208  1.00  0.00     0.040 A 
ENDROOT
BRANCH   1   8
ATOM      8  C   UNL     1      27.377   2.575  52.502  1.00  0.00     0.255 C 
ATOM      9  O   UNL     1      27.389   2.676  51.299  1.00  0.00    -0.269 OA
ATOM     10  N   UNL     1      26.511   3.144  53.353  1.00  0.00    -0.322 N 
ATOM     11  H   UNL     1      26.549   2.836  54.335  1.00  0.00     0.170 HD
BRANCH  10  12
ATOM     12  C   UNL     1      25.567   4.112  53.032  1.00  0.00     0.044 A 
ATOM     13  C   UNL     1      25.199   4.349  51.684  1.00  0.00     0.052 A 
ATOM     14  C   UNL     1      25.042   4.962  54.029  1.00  0.00     0.039 A 
ATOM     15  C   UNL     1      24.244   5.314  51.352  1.00  0.00     0.049 A 
ATOM     16  C   UNL     1      24.052   5.929  53.691  1.00  0.00     0.060 A 
ATOM     17  C   UNL     1      23.696   6.109  52.353  1.00  0.00     0.039 A 
BRANCH  15  18
ATOM     18  N   UNL     1      23.842   5.528  50.025  1.00  0.00    -0.306 N 
ATOM     19  C   UNL     1      22.553   5.581  49.497  1.00  0.00     0.116 A 
ATOM     20  C   UNL     1      24.638   5.636  48.954  1.00  0.00     0.204 A 
ATOM     21  C   UNL     1      22.650   5.722  48.157  1.00  0.00     0.056 A 
ATOM     22  N   UNL     1      23.963   5.787  47.841  1.00  0.00    -0.242 NA
ATOM     23  C   UNL     1      21.531   5.845  47.153  1.00  0.00     0.068 C 
ENDBRANCH  15  18
BRANCH  16  24
ATOM     24  C   UNL     1      23.470   6.774  54.777  1.00  0.00     0.416 C 
ATOM     25  F   UNL     1      22.167   6.548  55.038  1.00  0.00    -0.166 F 
ATOM     26  F   UNL     1      24.035   6.505  55.947  1.00  0.00    -0.166 F 
ATOM     27  F   UNL     1      23.506   8.089  54.478  1.00  0.00    -0.166 F 
ENDBRANCH  16  24
ENDBRANCH  10  12
ENDBRANCH   1   8
BRANCH   6  28
ATOM     28  N   UNL     1      30.944  -0.650  51.778  1.00  0.00    -0.324 N 
ATOM     29  H   UNL     1      30.783  -1.335  51.026  1.00  0.00     0.170 HD
BRANCH  28  30
ATOM     30  C   UNL     1      32.225  -0.145  52.007  1.00  0.00     0.227 A 
ATOM     31  N   UNL     1      32.614   0.774  52.882  1.00  0.00    -0.221 NA
ATOM     32  N   UNL     1      33.059  -0.710  51.096  1.00  0.00    -0.213 NA
ATOM     33  C   UNL     1      33.917   1.113  52.865  1.00  0.00     0.117 A 
ATOM     34  C   UNL     1      34.339  -0.317  51.096  1.00  0.00     0.077 A 
ATOM     35  C   UNL     1      34.786   0.602  51.979  1.00  0.00     0.049 A 
BRANCH  34  36
ATOM     36  C   UNL     1      35.217  -0.990  50.104  1.00  0.00     0.019 A 
ATOM     37  C   UNL     1      36.472  -0.463  49.757  1.00  0.00     0.013 A 
ATOM     38  C   UNL     1      34.802  -2.177  49.470  1.00  0.00     0.121 A 
ATOM     39  C   UNL     1      37.240  -1.121  48.805  1.00  0.00     0.021 A 
ATOM     40  N   UNL     1      35.535  -2.812  48.546  1.00  0.00    -0.264 NA
ATOM     41  C   UNL     1      36.741  -2.300  48.251  1.00  0.00     0.111 A 
ENDBRANCH  34  36
ENDBRANCH  28  30
ENDBRANCH   6  28
TORSDOF 7
ENDMDL
MODEL 3
REMARK VINA RESULT:   -11.655      1.523      2.083
REMARK INTER + INTRA:         -15.161
REMARK INTER:                 -13.743
REMARK INTRA:                  -1.419
REMARK CONF_INDEPENDENT:        2.088
REMARK UNBOUND:                -1.419
REMARK SMILES Cc1cn(-c2cc(NC(=O)c3ccc(C)c(Nc4nccc(-c5cccnc5)n4)c3)cc(C(F)(F)F)c2)cn1
REMARK SMILES IDX 11 1 12 2 13 3 14 4 15 5 16 6 30 7 9 8 10 9 8 10 7 12 6 13
REMARK SMILES IDX 31 14 5 15 32 16 37 17 4 18 3 19 38 20 2 21 39 22 1 23 33 24
REMARK SMILES IDX 34 25 35 26 36 27 17 28 18 30 19 31 29 32 20 33 22 34 21 35
REMARK SMILES IDX 23 36 24 37 28 38 25 39 27 40 26 41
REMARK H PARENT 8 11 17 29
ROOT
ATOM      1  C   UNL     1      27.723   1.720  53.327  1.00  0.00     0.042 A 
ATOM      2  C   UNL     1      27.127   0.473  53.561  1.00  0.00     0.014 A 
ATOM      3  C   UNL     1      27.802  -0.539  54.246  1.00  0.00     0.006 A 
ATOM      4  C   UNL     1      29.119  -0.380  54.647  1.00  0.00    -0.027 A 
ATOM      5  C   UNL     1      29.846  -1.494  55.385  1.00  0.00     0.046 C 
ATOM      6  C   UNL     1      29.752   0.820  54.325  1.00  0.00     0.045 A 
ATOM      7  C   UNL     1      29.048   1.832  53.660  1.00  0.00     0.040 A 
ENDROOT
BRANCH   1   8
ATOM      8  C   UNL     1      27.134   2.796  52.506  1.00  0.00     0.255 C 
ATOM      9  O   UNL     1      27.694   3.017  51.460  1.00  0.00    -0.269 OA
ATOM     10  N   UNL     1      25.920   3.228  52.880  1.00  0.00    -0.322 N 
ATOM     11  H   UNL     1      25.527   2.827  53.743  1.00  0.00     0.170 HD
BRANCH  10  12
ATOM     12  C   UNL     1      25.146   4.168  52.211  1.00  0.00     0.044 A 
ATOM     13  C   UNL     1      24.420   5.154  52.925  1.00  0.00     0.052 A 
ATOM     14  C   UNL     1      24.969   4.088  50.813  1.00  0.00     0.039 A 
ATOM     15  C   UNL     1      23.647   6.109  52.261  1.00  0.00     0.049 A 
ATOM     16  C   UNL     1      24.199   5.076  50.136  1.00  0.00     0.060 A 
ATOM     17  C   UNL     1      23.524   6.049  50.876  1.00  0.00     0.039 A 
BRANCH  15  18
ATOM     18  N   UNL     1      22.958   7.115  52.956  1.00  0.00    -0.306 N 
ATOM     19  C   UNL     1      22.520   8.355  52.495  1.00  0.00     0.116 A 
ATOM     20  C   UNL     1      22.655   7.124  54.259  1.00  0.00     0.204 A 
ATOM     21  C   UNL     1      21.982   9.026  53.537  1.00  0.00     0.056 A 
ATOM     22  N   UNL     1      22.046   8.226  54.624  1.00  0.00    -0.242 NA
ATOM     23  C   UNL     1      21.356  10.400  53.534  1.00  0.00     0.068 C 
ENDBRANCH  15  18
BRANCH  16  24
ATOM     24  C   UNL     1      24.078   5.002  48.648  1.00  0.00     0.416 C 
ATOM     25  F   UNL     1      22.814   4.984  48.179  1.00  0.00    -0.166 F 
ATOM     26  F   UNL     1      24.569   6.094  48.074  1.00  0.00    -0.166 F 
ATOM     27  F   UNL     1      24.614   3.870  48.146  1.00  0.00    -0.166 F 
ENDBRANCH  16  24
ENDBRANCH  10  12
ENDBRANCH   1   8
BRANCH   6  28
ATOM     28  N   UNL     1      31.023   1.068  54.859  1.00  0.00    -0.324 N 
ATOM     29  H   UNL     1      31.168   1.060  55.878  1.00  0.00     0.170 HD
BRANCH  28  30
ATOM     30  C   UNL     1      32.091   1.326  53.998  1.00  0.00     0.227 A 
ATOM     31  N   UNL     1      32.989   2.302  54.054  1.00  0.00    -0.221 NA
ATOM     32  N   UNL     1      32.033   0.422  52.986  1.00  0.00    -0.213 NA
ATOM     33  C   UNL     1      33.897   2.347  53.061  1.00  0.00     0.117 A 
ATOM     34  C   UNL     1      32.937   0.526  52.006  1.00  0.00     0.077 A 
ATOM     35  C   UNL     1      33.881   1.491  52.027  1.00  0.00     0.049 A 
BRANCH  34  36
ATOM     36  C   UNL     1      32.852  -0.507  50.941  1.00  0.00     0.019 A 
ATOM     37  C   UNL     1      33.984  -0.907  50.212  1.00  0.00     0.013 A 
ATOM     38  C   UNL     1      31.618  -1.107  50.623  1.00  0.00     0.121 A 
ATOM     39  C   UNL     1      33.840  -1.859  49.211  1.00  0.00     0.021 A 
ATOM     40  N   UNL     1      31.472  -2.020  49.654  1.00  0.00    -0.264 NA
ATOM     41  C   UNL     1      32.575  -2.402  48.990  1.00  0.00     0.111 A 
ENDBRANCH  34  36
ENDBRANCH  28  30
ENDBRANCH   6  28
TORSDOF 7
ENDMDL
MODEL 4
REMARK VINA RESULT:   -11.504      3.714     11.663
REMARK INTER + INTRA:         -14.710
REMARK INTER:                 -13.592
REMARK INTRA:                  -1.118
REMARK CONF_INDEPENDENT:        2.088
REMARK UNBOUND:                -1.118
REMARK SMILES Cc1cn(-c2cc(NC(=O)c3ccc(C)c(Nc4nccc(-c5cccnc5)n4)c3)cc(C(F)(F)F)c2)cn1
REMARK SMILES IDX 11 1 12 2 13 3 14 4 15 5 16 6 30 7 9 8 10 9 8 10 7 12 6 13
REMARK SMILES IDX 31 14 5 15 32 16 37 17 4 18 3 19 38 20 2 21 39 22 1 23 33 24
REMARK SMILES IDX 34 25 35 26 36 27 17 28 18 30 19 31 29 32 20 33 22 34 21 35
REMARK SMILES IDX 23 36 24 37 28 38 25 39 27 40 26 41
REMARK H PARENT 8 11 17 29
ROOT
ATOM      1  C   UNL     1      25.942   3.682  51.657  1.00  0.00     0.042 A 
ATOM      2  C   UNL     1      25.284   3.995  50.458  1.00  0.00     0.014 A 
ATOM      3  C   UNL     1      24.129   4.778  50.445  1.00  0.00     0.006 A 
ATOM      4  C   UNL     1      23.539   5.208  51.623  1.00  0.00    -0.027 A 
ATOM      5  C   UNL     1      22.275   6.055  51.594  1.00  0.00     0.046 C 
ATOM      6  C   UNL     1      24.130   4.814  52.822  1.00  0.00     0.045 A 
ATOM      7  C   UNL     1      25.303   4.049  52.813  1.00  0.00     0.040 A 
ENDROOT
BRANCH   1   8
ATOM      8  C   UNL     1      27.089   2.761  51.774  1.00  0.00     0.255 C 
ATOM      9  O   UNL     1      27.901   2.829  50.884  1.00  0.00    -0.269 OA
ATOM     10  N   UNL     1      27.234   2.144  52.957  1.00  0.00    -0.322 N 
ATOM     11  H   UNL     1      26.502   2.308  53.662  1.00  0.00     0.170 HD
BRANCH  10  12
ATOM     12  C   UNL     1      28.281   1.305  53.316  1.00  0.00     0.044 A 
ATOM     13  C   UNL     1      29.602   1.558  52.871  1.00  0.00     0.052 A 
ATOM     14  C   UNL     1      28.032   0.113  54.032  1.00  0.00     0.039 A 
ATOM     15  C   UNL     1      30.663   0.725  53.236  1.00  0.00     0.049 A 
ATOM     16  C   UNL     1      29.118  -0.723  54.421  1.00  0.00     0.060 A 
ATOM     17  C   UNL     1      30.410  -0.419  53.986  1.00  0.00     0.039 A 
BRANCH  15  18
ATOM     18  N   UNL     1      31.981   0.991  52.835  1.00  0.00    -0.306 N 
ATOM     19  C   UNL     1      32.666   0.529  51.712  1.00  0.00     0.116 A 
ATOM     20  C   UNL     1      32.901   1.685  53.516  1.00  0.00     0.204 A 
ATOM     21  C   UNL     1      33.939   0.974  51.782  1.00  0.00     0.056 A 
ATOM     22  N   UNL     1      34.058   1.722  52.901  1.00  0.00    -0.242 NA
ATOM     23  C   UNL     1      35.056   0.752  50.790  1.00  0.00     0.068 C 
ENDBRANCH  15  18
BRANCH  16  24
ATOM     24  C   UNL     1      28.832  -1.946  55.230  1.00  0.00     0.416 C 
ATOM     25  F   UNL     1      27.952  -2.803  54.675  1.00  0.00    -0.166 F 
ATOM     26  F   UNL     1      29.916  -2.704  55.348  1.00  0.00    -0.166 F 
ATOM     27  F   UNL     1      28.275  -1.653  56.423  1.00  0.00    -0.166 F 
ENDBRANCH  16  24
ENDBRANCH  10  12
ENDBRANCH   1   8
BRANCH   6  28
ATOM     28  N   UNL     1      23.650   5.368  54.016  1.00  0.00    -0.324 N 
ATOM     29  H   UNL     1      22.650   5.301  54.254  1.00  0.00     0.170 HD
BRANCH  28  30
ATOM     30  C   UNL     1      24.537   6.012  54.880  1.00  0.00     0.227 A 
ATOM     31  N   UNL     1      25.844   6.196  54.745  1.00  0.00    -0.221 NA
ATOM     32  N   UNL     1      23.841   6.380  55.986  1.00  0.00    -0.213 NA
ATOM     33  C   UNL     1      26.476   6.818  55.759  1.00  0.00     0.117 A 
ATOM     34  C   UNL     1      24.518   6.965  56.981  1.00  0.00     0.077 A 
ATOM     35  C   UNL     1      25.846   7.191  56.883  1.00  0.00     0.049 A 
BRANCH  34  36
ATOM     36  C   UNL     1      23.705   7.381  58.154  1.00  0.00     0.019 A 
ATOM     37  C   UNL     1      24.302   7.862  59.329  1.00  0.00     0.013 A 
ATOM     38  C   UNL     1      22.300   7.286  58.120  1.00  0.00     0.121 A 
ATOM     39  C   UNL     1      23.494   8.212  60.403  1.00  0.00     0.021 A 
ATOM     40  N   UNL     1      21.515   7.614  59.155  1.00  0.00    -0.264 NA
ATOM     41  C   UNL     1      22.112   8.095  60.257  1.00  0.00     0.111 A 
ENDBRANCH  34  36
ENDBRANCH  28  30
ENDBRANCH   6  28
TORSDOF 7
ENDMDL
MODEL 5
REMARK VINA RESULT:   -10.951      4.719      8.325
REMARK INTER + INTRA:         -14.137
REMARK INTER:                 -13.039
REMARK INTRA:                  -1.098
REMARK CONF_INDEPENDENT:        2.088
REMARK UNBOUND:                -1.098
REMARK SMILES Cc1cn(-c2cc(NC(=O)c3ccc(C)c(Nc4nccc(-c5cccnc5)n4)c3)cc(C(F)(F)F)c2)cn1
REMARK SMILES IDX 11 1 12 2 13 3 14 4 15 5 16 6 30 7 9 8 10 9 8 10 7 12 6 13
REMARK SMILES IDX 31 14 5 15 32 16 37 17 4 18 3 19 38 20 2 21 39 22 1 23 33 24
REMARK SMILES IDX 34 25 35 26 36 27 17 28 18 30 19 31 29 32 20 33 22 34 21 35
REMARK SMILES IDX 23 36 24 37 28 38 25 39 27 40 26 41
REMARK H PARENT 8 11 17 29
ROOT
ATOM      1  C   UNL     1      34.417  -0.859  50.765  1.00  0.00     0.042 A 
ATOM      2  C   UNL     1      34.500  -2.107  50.129  1.00  0.00     0.014 A 
ATOM      3  C   UNL     1      35.483  -2.372  49.174  1.00  0.00     0.006 A 
ATOM      4  C   UNL     1      36.362  -1.386  48.756  1.00  0.00    -0.027 A 
ATOM      5  C   UNL     1      37.424  -1.687  47.707  1.00  0.00     0.046 C 
ATOM      6  C   UNL     1      36.218  -0.114  49.308  1.00  0.00     0.045 A 
ATOM      7  C   UNL     1      35.241   0.124  50.284  1.00  0.00     0.040 A 
ENDROOT
BRANCH   1   8
ATOM      8  C   UNL     1      33.338  -0.453  51.688  1.00  0.00     0.255 C 
ATOM      9  O   UNL     1      33.576   0.514  52.369  1.00  0.00    -0.269 OA
ATOM     10  N   UNL     1      32.144  -1.032  51.494  1.00  0.00    -0.322 N 
ATOM     11  H   UNL     1      32.089  -1.758  50.765  1.00  0.00     0.170 HD
BRANCH  10  12
ATOM     12  C   UNL     1      30.974  -0.743  52.185  1.00  0.00     0.044 A 
ATOM     13  C   UNL     1      30.173   0.368  51.825  1.00  0.00     0.052 A 
ATOM     14  C   UNL     1      30.622  -1.477  53.338  1.00  0.00     0.039 A 
ATOM     15  C   UNL     1      28.989   0.662  52.508  1.00  0.00     0.049 A 
ATOM     16  C   UNL     1      29.405  -1.190  54.020  1.00  0.00     0.060 A 
ATOM     17  C   UNL     1      28.628  -0.104  53.612  1.00  0.00     0.039 A 
BRANCH  15  18
ATOM     18  N   UNL     1      28.167   1.735  52.132  1.00  0.00    -0.306 N 
ATOM     19  C   UNL     1      27.245   2.442  52.901  1.00  0.00     0.116 A 
ATOM     20  C   UNL     1      28.032   2.249  50.904  1.00  0.00     0.204 A 
ATOM     21  C   UNL     1      26.621   3.333  52.099  1.00  0.00     0.056 A 
ATOM     22  N   UNL     1      27.152   3.219  50.861  1.00  0.00    -0.242 NA
ATOM     23  C   UNL     1      25.558   4.336  52.475  1.00  0.00     0.068 C 
ENDBRANCH  15  18
BRANCH  16  24
ATOM     24  C   UNL     1      29.026  -2.023  55.201  1.00  0.00     0.416 C 
ATOM     25  F   UNL     1      28.271  -3.103  54.919  1.00  0.00    -0.166 F 
ATOM     26  F   UNL     1      30.097  -2.574  55.760  1.00  0.00    -0.166 F 
ATOM     27  F   UNL     1      28.275  -1.340  56.090  1.00  0.00    -0.166 F 
ENDBRANCH  16  24
ENDBRANCH  10  12
ENDBRANCH   1   8
BRANCH   6  28
ATOM     28  N   UNL     1      37.192   0.851  49.024  1.00  0.00    -0.324 N 
ATOM     29  H   UNL     1      36.919   1.773  48.658  1.00  0.00     0.170 HD
BRANCH  28  30
ATOM     30  C   UNL     1      38.539   0.551  49.241  1.00  0.00     0.227 A 
ATOM     31  N   UNL     1      39.093  -0.109  50.251  1.00  0.00    -0.221 NA
ATOM     32  N   UNL     1      39.256   1.135  48.247  1.00  0.00    -0.213 NA
ATOM     33  C   UNL     1      40.435  -0.220  50.238  1.00  0.00     0.117 A 
ATOM     34  C   UNL     1      40.589   1.025  48.294  1.00  0.00     0.077 A 
ATOM     35  C   UNL     1      41.198   0.348  49.291  1.00  0.00     0.049 A 
BRANCH  34  36
ATOM     36  C   UNL     1      41.326   1.651  47.165  1.00  0.00     0.019 A 
ATOM     37  C   UNL     1      42.728   1.716  47.149  1.00  0.00     0.013 A 
ATOM     38  C   UNL     1      40.627   2.213  46.079  1.00  0.00     0.121 A 
ATOM     39  C   UNL     1      43.362   2.336  46.079  1.00  0.00     0.021 A 
ATOM     40  N   UNL     1      41.232   2.818  45.049  1.00  0.00    -0.264 NA
ATOM     41  C   UNL     1      42.575   2.844  45.047  1.00  0.00     0.111 A 
ENDBRANCH  34  36
ENDBRANCH  28  30
ENDBRANCH   6  28
TORSDOF 7
ENDMDL
MODEL 6
REMARK VINA RESULT:   -10.903      8.370     15.229
REMARK INTER + INTRA:         -14.292
REMARK INTER:                 -12.992
REMARK INTRA:                  -1.301
REMARK CONF_INDEPENDENT:        2.088
REMARK UNBOUND:                -1.301
REMARK SMILES Cc1cn(-c2cc(NC(=O)c3ccc(C)c(Nc4nccc(-c5cccnc5)n4)c3)cc(C(F)(F)F)c2)cn1
REMARK SMILES IDX 11 1 12 2 13 3 14 4 15 5 16 6 30 7 9 8 10 9 8 10 7 12 6 13
REMARK SMILES IDX 31 14 5 15 32 16 37 17 4 18 3 19 38 20 2 21 39 22 1 23 33 24
REMARK SMILES IDX 34 25 35 26 36 27 17 28 18 30 19 31 29 32 20 33 22 34 21 35
REMARK SMILES IDX 23 36 24 37 28 38 25 39 27 40 26 41
REMARK H PARENT 8 11 17 29
ROOT
ATOM      1  C   UNL     1      36.006  -1.654  49.258  1.00  0.00     0.042 A 
ATOM      2  C   UNL     1      35.225  -2.814  49.149  1.00  0.00     0.014 A 
ATOM      3  C   UNL     1      33.852  -2.793  49.402  1.00  0.00     0.006 A 
ATOM      4  C   UNL     1      33.222  -1.643  49.850  1.00  0.00    -0.027 A 
ATOM      5  C   UNL     1      31.726  -1.637  50.129  1.00  0.00     0.046 C 
ATOM      6  C   UNL     1      34.011  -0.514  50.060  1.00  0.00     0.045 A 
ATOM      7  C   UNL     1      35.383  -0.549  49.777  1.00  0.00     0.040 A 
ENDROOT
BRANCH   1   8
ATOM      8  C   UNL     1      37.476  -1.612  49.134  1.00  0.00     0.255 C 
ATOM      9  O   UNL     1      38.065  -1.173  50.092  1.00  0.00    -0.269 OA
ATOM     10  N   UNL     1      38.002  -2.286  48.101  1.00  0.00    -0.322 N 
ATOM     11  H   UNL     1      37.342  -2.720  47.441  1.00  0.00     0.170 HD
BRANCH  10  12
ATOM     12  C   UNL     1      39.357  -2.450  47.838  1.00  0.00     0.044 A 
ATOM     13  C   UNL     1      39.916  -2.026  46.608  1.00  0.00     0.052 A 
ATOM     14  C   UNL     1      40.182  -3.153  48.743  1.00  0.00     0.039 A 
ATOM     15  C   UNL     1      41.279  -2.179  46.339  1.00  0.00     0.049 A 
ATOM     16  C   UNL     1      41.575  -3.288  48.477  1.00  0.00     0.060 A 
ATOM     17  C   UNL     1      42.091  -2.828  47.263  1.00  0.00     0.039 A 
BRANCH  15  18
ATOM     18  N   UNL     1      41.850  -1.724  45.141  1.00  0.00    -0.306 N 
ATOM     19  C   UNL     1      42.150  -0.419  44.753  1.00  0.00     0.116 A 
ATOM     20  C   UNL     1      42.147  -2.461  44.064  1.00  0.00     0.204 A 
ATOM     21  C   UNL     1      42.608  -0.451  43.483  1.00  0.00     0.056 A 
ATOM     22  N   UNL     1      42.629  -1.741  43.081  1.00  0.00    -0.242 NA
ATOM     23  C   UNL     1      43.078   0.707  42.636  1.00  0.00     0.068 C 
ENDBRANCH  15  18
BRANCH  16  24
ATOM     24  C   UNL     1      42.437  -3.984  49.480  1.00  0.00     0.416 C 
ATOM     25  F   UNL     1      42.276  -5.321  49.539  1.00  0.00    -0.166 F 
ATOM     26  F   UNL     1      43.722  -3.875  49.162  1.00  0.00    -0.166 F 
ATOM     27  F   UNL     1      42.182  -3.582  50.742  1.00  0.00    -0.166 F 
ENDBRANCH  16  24
ENDBRANCH  10  12
ENDBRANCH   1   8
BRANCH   6  28
ATOM     28  N   UNL     1      33.375   0.699  50.355  1.00  0.00    -0.324 N 
ATOM     29  H   UNL     1      33.044   1.310  49.595  1.00  0.00     0.170 HD
BRANCH  28  30
ATOM     30  C   UNL     1      33.193   1.072  51.688  1.00  0.00     0.227 A 
ATOM     31  N   UNL     1      33.888   1.940  52.412  1.00  0.00    -0.221 NA
ATOM     32  N   UNL     1      32.184   0.316  52.193  1.00  0.00    -0.213 NA
ATOM     33  C   UNL     1      33.525   2.082  53.701  1.00  0.00     0.117 A 
ATOM     34  C   UNL     1      31.880   0.470  53.487  1.00  0.00     0.077 A 
ATOM     35  C   UNL     1      32.547   1.353  54.261  1.00  0.00     0.049 A 
BRANCH  34  36
ATOM     36  C   UNL     1      30.746  -0.354  53.982  1.00  0.00     0.019 A 
ATOM     37  C   UNL     1      29.651   0.224  54.645  1.00  0.00     0.013 A 
ATOM     38  C   UNL     1      30.750  -1.752  53.811  1.00  0.00     0.121 A 
ATOM     39  C   UNL     1      28.633  -0.599  55.108  1.00  0.00     0.021 A 
ATOM     40  N   UNL     1      29.775  -2.551  54.263  1.00  0.00    -0.264 NA
ATOM     41  C   UNL     1      28.727  -1.969  54.870  1.00  0.00     0.111 A 
ENDBRANCH  34  36
ENDBRANCH  28  30
ENDBRANCH   6  28
TORSDOF 7
ENDMDL
MODEL 7
REMARK VINA RESULT:   -10.897      1.854      2.806
REMARK INTER + INTRA:         -14.215
REMARK INTER:                 -12.985
REMARK INTRA:                  -1.229
REMARK CONF_INDEPENDENT:        2.088
REMARK UNBOUND:                -1.229
REMARK SMILES Cc1cn(-c2cc(NC(=O)c3ccc(C)c(Nc4nccc(-c5cccnc5)n4)c3)cc(C(F)(F)F)c2)cn1
REMARK SMILES IDX 11 1 12 2 13 3 14 4 15 5 16 6 30 7 9 8 10 9 8 10 7 12 6 13
REMARK SMILES IDX 31 14 5 15 32 16 37 17 4 18 3 19 38 20 2 21 39 22 1 23 33 24
REMARK SMILES IDX 34 25 35 26 36 27 17 28 18 30 19 31 29 32 20 33 22 34 21 35
REMARK SMILES IDX 23 36 24 37 28 38 25 39 27 40 26 41
REMARK H PARENT 8 11 17 29
ROOT
ATOM      1  C   UNL     1      26.931   2.565  52.523  1.00  0.00     0.042 A 
ATOM      2  C   UNL     1      27.016   1.498  51.616  1.00  0.00     0.014 A 
ATOM      3  C   UNL     1      27.925   0.456  51.802  1.00  0.00     0.006 A 
ATOM      4  C   UNL     1      28.838   0.476  52.845  1.00  0.00    -0.027 A 
ATOM      5  C   UNL     1      29.829  -0.664  53.031  1.00  0.00     0.046 C 
ATOM      6  C   UNL     1      28.828   1.585  53.690  1.00  0.00     0.045 A 
ATOM      7  C   UNL     1      27.891   2.608  53.501  1.00  0.00     0.040 A 
ENDROOT
BRANCH   1   8
ATOM      8  C   UNL     1      26.093   3.766  52.338  1.00  0.00     0.255 C 
ATOM      9  O   UNL     1      25.975   4.144  51.198  1.00  0.00    -0.269 OA
ATOM     10  N   UNL     1      25.362   4.147  53.396  1.00  0.00    -0.322 N 
ATOM     11  H   UNL     1      25.493   3.616  54.270  1.00  0.00     0.170 HD
BRANCH  10  12
ATOM     12  C   UNL     1      24.446   5.191  53.423  1.00  0.00     0.044 A 
ATOM     13  C   UNL     1      23.700   5.474  54.594  1.00  0.00     0.052 A 
ATOM     14  C   UNL     1      24.150   5.916  52.248  1.00  0.00     0.039 A 
ATOM     15  C   UNL     1      22.784   6.529  54.633  1.00  0.00     0.049 A 
ATOM     16  C   UNL     1      23.233   7.004  52.296  1.00  0.00     0.060 A 
ATOM     17  C   UNL     1      22.541   7.268  53.480  1.00  0.00     0.039 A 
BRANCH  15  18
ATOM     18  N   UNL     1      22.071   6.844  55.799  1.00  0.00    -0.306 N 
ATOM     19  C   UNL     1      22.544   7.381  56.996  1.00  0.00     0.116 A 
ATOM     20  C   UNL     1      20.777   6.603  56.038  1.00  0.00     0.204 A 
ATOM     21  C   UNL     1      21.515   7.434  57.870  1.00  0.00     0.056 A 
ATOM     22  N   UNL     1      20.411   6.973  57.241  1.00  0.00    -0.242 NA
ATOM     23  C   UNL     1      21.526   7.956  59.286  1.00  0.00     0.068 C 
ENDBRANCH  15  18
BRANCH  16  24
ATOM     24  C   UNL     1      22.983   7.792  51.051  1.00  0.00     0.416 C 
ATOM     25  F   UNL     1      24.084   8.320  50.481  1.00  0.00    -0.166 F 
ATOM     26  F   UNL     1      22.516   7.016  50.080  1.00  0.00    -0.166 F 
ATOM     27  F   UNL     1      22.199   8.867  51.274  1.00  0.00    -0.166 F 
ENDBRANCH  16  24
ENDBRANCH  10  12
ENDBRANCH   1   8
BRANCH   6  28
ATOM     28  N   UNL     1      29.627   1.553  54.841  1.00  0.00    -0.324 N 
ATOM     29  H   UNL     1      29.262   1.147  55.714  1.00  0.00     0.170 HD
BRANCH  28  30
ATOM     30  C   UNL     1      30.921   2.075  54.794  1.00  0.00     0.227 A 
ATOM     31  N   UNL     1      31.431   3.096  55.470  1.00  0.00    -0.221 NA
ATOM     32  N   UNL     1      31.606   1.392  53.840  1.00  0.00    -0.213 NA
ATOM     33  C   UNL     1      32.709   3.423  55.199  1.00  0.00     0.117 A 
ATOM     34  C   UNL     1      32.862   1.774  53.585  1.00  0.00     0.077 A 
ATOM     35  C   UNL     1      33.433   2.796  54.258  1.00  0.00     0.049 A 
BRANCH  34  36
ATOM     36  C   UNL     1      33.580   0.974  52.558  1.00  0.00     0.019 A 
ATOM     37  C   UNL     1      32.945   0.546  51.382  1.00  0.00     0.013 A 
ATOM     38  C   UNL     1      34.927   0.607  52.750  1.00  0.00     0.121 A 
ATOM     39  C   UNL     1      33.658  -0.221  50.469  1.00  0.00     0.021 A 
ATOM     40  N   UNL     1      35.618  -0.139  51.878  1.00  0.00    -0.264 NA
ATOM     41  C   UNL     1      34.993  -0.512  50.750  1.00  0.00     0.111 A 
ENDBRANCH  34  36
ENDBRANCH  28  30
ENDBRANCH   6  28
TORSDOF 7
ENDMDL
MODEL 8
REMARK VINA RESULT:   -10.856      3.559     12.073
REMARK INTER + INTRA:         -14.286
REMARK INTER:                 -12.944
REMARK INTRA:                  -1.342
REMARK CONF_INDEPENDENT:        2.088
REMARK UNBOUND:                -1.342
REMARK SMILES Cc1cn(-c2cc(NC(=O)c3ccc(C)c(Nc4nccc(-c5cccnc5)n4)c3)cc(C(F)(F)F)c2)cn1
REMARK SMILES IDX 11 1 12 2 13 3 14 4 15 5 16 6 30 7 9 8 10 9 8 10 7 12 6 13
REMARK SMILES IDX 31 14 5 15 32 16 37 17 4 18 3 19 38 20 2 21 39 22 1 23 33 24
REMARK SMILES IDX 34 25 35 26 36 27 17 28 18 30 19 31 29 32 20 33 22 34 21 35
REMARK SMILES IDX 23 36 24 37 28 38 25 39 27 40 26 41
REMARK H PARENT 8 11 17 29
ROOT
ATOM      1  C   UNL     1      25.584   3.645  51.854  1.00  0.00     0.042 A 
ATOM      2  C   UNL     1      24.805   3.758  50.692  1.00  0.00     0.014 A 
ATOM      3  C   UNL     1      23.465   4.142  50.751  1.00  0.00     0.006 A 
ATOM      4  C   UNL     1      22.828   4.347  51.964  1.00  0.00    -0.027 A 
ATOM      5  C   UNL     1      21.364   4.759  52.013  1.00  0.00     0.046 C 
ATOM      6  C   UNL     1      23.569   4.136  53.126  1.00  0.00     0.045 A 
ATOM      7  C   UNL     1      24.920   3.775  53.046  1.00  0.00     0.040 A 
ENDROOT
BRANCH   1   8
ATOM      8  C   UNL     1      26.965   3.125  51.896  1.00  0.00     0.255 C 
ATOM      9  O   UNL     1      27.534   3.078  50.832  1.00  0.00    -0.269 OA
ATOM     10  N   UNL     1      27.515   3.005  53.114  1.00  0.00    -0.322 N 
ATOM     11  H   UNL     1      26.914   3.219  53.921  1.00  0.00     0.170 HD
BRANCH  10  12
ATOM     12  C   UNL     1      28.822   2.617  53.384  1.00  0.00     0.044 A 
ATOM     13  C   UNL     1      29.459   1.618  52.608  1.00  0.00     0.052 A 
ATOM     14  C   UNL     1      29.501   3.123  54.514  1.00  0.00     0.039 A 
ATOM     15  C   UNL     1      30.777   1.229  52.866  1.00  0.00     0.049 A 
ATOM     16  C   UNL     1      30.851   2.742  54.762  1.00  0.00     0.060 A 
ATOM     17  C   UNL     1      31.452   1.775  53.953  1.00  0.00     0.039 A 
BRANCH  15  18
ATOM     18  N   UNL     1      31.431   0.271  52.077  1.00  0.00    -0.306 N 
ATOM     19  C   UNL     1      32.798   0.046  51.928  1.00  0.00     0.116 A 
ATOM     20  C   UNL     1      30.863  -0.582  51.217  1.00  0.00     0.204 A 
ATOM     21  C   UNL     1      32.968  -0.922  51.000  1.00  0.00     0.056 A 
ATOM     22  N   UNL     1      31.744  -1.324  50.591  1.00  0.00    -0.242 NA
ATOM     23  C   UNL     1      34.264  -1.523  50.511  1.00  0.00     0.068 C 
ENDBRANCH  15  18
BRANCH  16  24
ATOM     24  C   UNL     1      31.566   3.339  55.930  1.00  0.00     0.416 C 
ATOM     25  F   UNL     1      30.936   4.379  56.513  1.00  0.00    -0.166 F 
ATOM     26  F   UNL     1      31.650   2.472  56.932  1.00  0.00    -0.166 F 
ATOM     27  F   UNL     1      32.767   3.851  55.589  1.00  0.00    -0.166 F 
ENDBRANCH  16  24
ENDBRANCH  10  12
ENDBRANCH   1   8
BRANCH   6  28
ATOM     28  N   UNL     1      22.999   4.493  54.355  1.00  0.00    -0.324 N 
ATOM     29  H   UNL     1      22.425   3.815  54.877  1.00  0.00     0.170 HD
BRANCH  28  30
ATOM     30  C   UNL     1      23.214   5.774  54.866  1.00  0.00     0.227 A 
ATOM     31  N   UNL     1      24.133   6.182  55.732  1.00  0.00    -0.221 NA
ATOM     32  N   UNL     1      22.237   6.582  54.377  1.00  0.00    -0.213 NA
ATOM     33  C   UNL     1      24.091   7.478  56.094  1.00  0.00     0.117 A 
ATOM     34  C   UNL     1      22.217   7.854  54.791  1.00  0.00     0.077 A 
ATOM     35  C   UNL     1      23.142   8.321  55.658  1.00  0.00     0.049 A 
BRANCH  34  36
ATOM     36  C   UNL     1      21.151   8.705  54.201  1.00  0.00     0.019 A 
ATOM     37  C   UNL     1      19.823   8.260  54.107  1.00  0.00     0.013 A 
ATOM     38  C   UNL     1      21.454   9.987  53.701  1.00  0.00     0.121 A 
ATOM     39  C   UNL     1      18.873   9.089  53.523  1.00  0.00     0.021 A 
ATOM     40  N   UNL     1      20.545  10.787  53.130  1.00  0.00    -0.264 NA
ATOM     41  C   UNL     1      19.277  10.347  53.077  1.00  0.00     0.111 A 
ENDBRANCH  34  36
ENDBRANCH  28  30
ENDBRANCH   6  28
TORSDOF 7
ENDMDL
MODEL 9
REMARK VINA RESULT:   -10.844      3.890     11.810
REMARK INTER + INTRA:         -14.074
REMARK INTER:                 -12.933
REMARK INTRA:                  -1.141
REMARK CONF_INDEPENDENT:        2.088
REMARK UNBOUND:                -1.141
REMARK SMILES Cc1cn(-c2cc(NC(=O)c3ccc(C)c(Nc4nccc(-c5cccnc5)n4)c3)cc(C(F)(F)F)c2)cn1
REMARK SMILES IDX 11 1 12 2 13 3 14 4 15 5 16 6 30 7 9 8 10 9 8 10 7 12 6 13
REMARK SMILES IDX 31 14 5 15 32 16 37 17 4 18 3 19 38 20 2 21 39 22 1 23 33 24
REMARK SMILES IDX 34 25 35 26 36 27 17 28 18 30 19 31 29 32 20 33 22 34 21 35
REMARK SMILES IDX 23 36 24 37 28 38 25 39 27 40 26 41
REMARK H PARENT 8 11 17 29
ROOT
ATOM      1  C   UNL     1      25.713   3.647  51.951  1.00  0.00     0.042 A 
ATOM      2  C   UNL     1      24.845   3.522  50.857  1.00  0.00     0.014 A 
ATOM      3  C   UNL     1      23.518   3.948  50.930  1.00  0.00     0.006 A 
ATOM      4  C   UNL     1      22.983   4.434  52.112  1.00  0.00    -0.027 A 
ATOM      5  C   UNL     1      21.531   4.887  52.179  1.00  0.00     0.046 C 
ATOM      6  C   UNL     1      23.812   4.464  53.232  1.00  0.00     0.045 A 
ATOM      7  C   UNL     1      25.148   4.056  53.131  1.00  0.00     0.040 A 
ENDROOT
BRANCH   1   8
ATOM      8  C   UNL     1      27.088   3.110  52.003  1.00  0.00     0.255 C 
ATOM      9  O   UNL     1      27.664   3.058  50.944  1.00  0.00    -0.269 OA
ATOM     10  N   UNL     1      27.627   2.981  53.225  1.00  0.00    -0.322 N 
ATOM     11  H   UNL     1      27.021   3.201  54.029  1.00  0.00     0.170 HD
BRANCH  10  12
ATOM     12  C   UNL     1      28.926   2.578  53.505  1.00  0.00     0.044 A 
ATOM     13  C   UNL     1      29.561   1.579  52.726  1.00  0.00     0.052 A 
ATOM     14  C   UNL     1      29.599   3.066  54.646  1.00  0.00     0.039 A 
ATOM     15  C   UNL     1      30.871   1.173  52.994  1.00  0.00     0.049 A 
ATOM     16  C   UNL     1      30.942   2.668  54.904  1.00  0.00     0.060 A 
ATOM     17  C   UNL     1      31.541   1.703  54.092  1.00  0.00     0.039 A 
BRANCH  15  18
ATOM     18  N   UNL     1      31.524   0.216  52.203  1.00  0.00    -0.306 N 
ATOM     19  C   UNL     1      32.880   0.106  51.901  1.00  0.00     0.116 A 
ATOM     20  C   UNL     1      30.949  -0.757  51.485  1.00  0.00     0.204 A 
ATOM     21  C   UNL     1      33.038  -0.918  51.034  1.00  0.00     0.056 A 
ATOM     22  N   UNL     1      31.823  -1.465  50.812  1.00  0.00    -0.242 NA
ATOM     23  C   UNL     1      34.322  -1.436  50.433  1.00  0.00     0.068 C 
ENDBRANCH  15  18
BRANCH  16  24
ATOM     24  C   UNL     1      31.652   3.248  56.084  1.00  0.00     0.416 C 
ATOM     25  F   UNL     1      31.653   2.471  57.186  1.00  0.00    -0.166 F 
ATOM     26  F   UNL     1      32.950   3.382  55.842  1.00  0.00    -0.166 F 
ATOM     27  F   UNL     1      31.086   4.396  56.511  1.00  0.00    -0.166 F 
ENDBRANCH  16  24
ENDBRANCH  10  12
ENDBRANCH   1   8
BRANCH   6  28
ATOM     28  N   UNL     1      23.346   5.100  54.390  1.00  0.00    -0.324 N 
ATOM     29  H   UNL     1      22.424   4.859  54.779  1.00  0.00     0.170 HD
BRANCH  28  30
ATOM     30  C   UNL     1      24.143   6.063  55.013  1.00  0.00     0.227 A 
ATOM     31  N   UNL     1      25.336   6.517  54.651  1.00  0.00    -0.221 NA
ATOM     32  N   UNL     1      23.516   6.438  56.157  1.00  0.00    -0.213 NA
ATOM     33  C   UNL     1      25.910   7.425  55.463  1.00  0.00     0.117 A 
ATOM     34  C   UNL     1      24.140   7.318  56.948  1.00  0.00     0.077 A 
ATOM     35  C   UNL     1      25.347   7.823  56.615  1.00  0.00     0.049 A 
BRANCH  34  36
ATOM     36  C   UNL     1      23.397   7.723  58.170  1.00  0.00     0.019 A 
ATOM     37  C   UNL     1      23.844   8.773  58.989  1.00  0.00     0.013 A 
ATOM     38  C   UNL     1      22.222   7.046  58.550  1.00  0.00     0.121 A 
ATOM     39  C   UNL     1      23.123   9.091  60.133  1.00  0.00     0.021 A 
ATOM     40  N   UNL     1      21.527   7.343  59.656  1.00  0.00    -0.264 NA
ATOM     41  C   UNL     1      21.963   8.368  60.406  1.00  0.00     0.111 A 
ENDBRANCH  34  36
ENDBRANCH  28  30
ENDBRANCH   6  28
TORSDOF 7
ENDMDL
MODEL 10
REMARK VINA RESULT:   -10.830      2.882      4.433
REMARK INTER + INTRA:         -14.151
REMARK INTER:                 -12.919
REMARK INTRA:                  -1.232
REMARK CONF_INDEPENDENT:        2.088
REMARK UNBOUND:                -1.232
REMARK SMILES Cc1cn(-c2cc(NC(=O)c3ccc(C)c(Nc4nccc(-c5cccnc5)n4)c3)cc(C(F)(F)F)c2)cn1
REMARK SMILES IDX 11 1 12 2 13 3 14 4 15 5 16 6 30 7 9 8 10 9 8 10 7 12 6 13
REMARK SMILES IDX 31 14 5 15 32 16 37 17 4 18 3 19 38 20 2 21 39 22 1 23 33 24
REMARK SMILES IDX 34 25 35 26 36 27 17 28 18 30 19 31 29 32 20 33 22 34 21 35
REMARK SMILES IDX 23 36 24 37 28 38 25 39 27 40 26 41
REMARK H PARENT 8 11 17 29
ROOT
ATOM      1  C   UNL     1      29.119   2.155  53.287  1.00  0.00     0.042 A 
ATOM      2  C   UNL     1      29.770   3.224  53.920  1.00  0.00     0.014 A 
ATOM      3  C   UNL     1      31.122   3.153  54.261  1.00  0.00     0.006 A 
ATOM      4  C   UNL     1      31.853   1.992  54.062  1.00  0.00    -0.027 A 
ATOM      5  C   UNL     1      33.324   1.926  54.446  1.00  0.00     0.046 C 
ATOM      6  C   UNL     1      31.185   0.891  53.528  1.00  0.00     0.045 A 
ATOM      7  C   UNL     1      29.834   0.991  53.170  1.00  0.00     0.040 A 
ENDROOT
BRANCH   1   8
ATOM      8  C   UNL     1      27.671   2.096  53.008  1.00  0.00     0.255 C 
ATOM      9  O   UNL     1      27.095   1.134  53.457  1.00  0.00    -0.269 OA
ATOM     10  N   UNL     1      27.117   3.215  52.518  1.00  0.00    -0.322 N 
ATOM     11  H   UNL     1      27.751   4.000  52.313  1.00  0.00     0.170 HD
BRANCH  10  12
ATOM     12  C   UNL     1      25.766   3.411  52.261  1.00  0.00     0.044 A 
ATOM     13  C   UNL     1      25.180   2.950  51.056  1.00  0.00     0.052 A 
ATOM     14  C   UNL     1      24.972   4.181  53.140  1.00  0.00     0.039 A 
ATOM     15  C   UNL     1      23.820   3.134  50.793  1.00  0.00     0.049 A 
ATOM     16  C   UNL     1      23.582   4.348  52.881  1.00  0.00     0.060 A 
ATOM     17  C   UNL     1      23.039   3.850  51.694  1.00  0.00     0.039 A 
BRANCH  15  18
ATOM     18  N   UNL     1      23.221   2.644  49.622  1.00  0.00    -0.306 N 
ATOM     19  C   UNL     1      22.594   1.419  49.406  1.00  0.00     0.116 A 
ATOM     20  C   UNL     1      23.212   3.233  48.421  1.00  0.00     0.204 A 
ATOM     21  C   UNL     1      22.245   1.347  48.103  1.00  0.00     0.056 A 
ATOM     22  N   UNL     1      22.611   2.505  47.511  1.00  0.00    -0.242 NA
ATOM     23  C   UNL     1      21.525   0.225  47.395  1.00  0.00     0.068 C 
ENDBRANCH  15  18
BRANCH  16  24
ATOM     24  C   UNL     1      22.754   5.116  53.859  1.00  0.00     0.416 C 
ATOM     25  F   UNL     1      22.010   6.105  53.323  1.00  0.00    -0.166 F 
ATOM     26  F   UNL     1      21.826   4.343  54.409  1.00  0.00    -0.166 F 
ATOM     27  F   UNL     1      23.506   5.754  54.779  1.00  0.00    -0.166 F 
ENDBRANCH  16  24
ENDBRANCH  10  12
ENDBRANCH   1   8
BRANCH   6  28
ATOM     28  N   UNL     1      31.937  -0.234  53.168  1.00  0.00    -0.324 N 
ATOM     29  H   UNL     1      32.487  -0.739  53.877  1.00  0.00     0.170 HD
BRANCH  28  30
ATOM     30  C   UNL     1      31.933  -0.667  51.841  1.00  0.00     0.227 A 
ATOM     31  N   UNL     1      30.900  -0.997  51.075  1.00  0.00    -0.221 NA
ATOM     32  N   UNL     1      33.226  -0.783  51.442  1.00  0.00    -0.213 NA
ATOM     33  C   UNL     1      31.182  -1.428  49.831  1.00  0.00     0.117 A 
ATOM     34  C   UNL     1      33.457  -1.246  50.208  1.00  0.00     0.077 A 
ATOM     35  C   UNL     1      32.439  -1.578  49.385  1.00  0.00     0.049 A 
BRANCH  34  36
ATOM     36  C   UNL     1      34.886  -1.321  49.807  1.00  0.00     0.019 A 
ATOM     37  C   UNL     1      35.372  -2.371  49.011  1.00  0.00     0.013 A 
ATOM     38  C   UNL     1      35.801  -0.339  50.233  1.00  0.00     0.121 A 
ATOM     39  C   UNL     1      36.723  -2.403  48.688  1.00  0.00     0.021 A 
ATOM     40  N   UNL     1      37.105  -0.368  49.932  1.00  0.00    -0.264 NA
ATOM     41  C   UNL     1      37.538  -1.369  49.148  1.00  0.00     0.111 A 
ENDBRANCH  34  36
ENDBRANCH  28  30
ENDBRANCH   6  28
TORSDOF 7
ENDMDL
MODEL 11
REMARK VINA RESULT:   -10.804      4.698     13.529
REMARK INTER + INTRA:         -14.233
REMARK INTER:                 -12.892
REMARK INTRA:                  -1.342
REMARK CONF_INDEPENDENT:        2.088
REMARK UNBOUND:                -1.342
REMARK SMILES Cc1cn(-c2cc(NC(=O)c3ccc(C)c(Nc4nccc(-c5cccnc5)n4)c3)cc(C(F)(F)F)c2)cn1
REMARK SMILES IDX 11 1 12 2 13 3 14 4 15 5 16 6 30 7 9 8 10 9 8 10 7 12 6 13
REMARK SMILES IDX 31 14 5 15 32 16 37 17 4 18 3 19 38 20 2 21 39 22 1 23 33 24
REMARK SMILES IDX 34 25 35 26 36 27 17 28 18 30 19 31 29 32 20 33 22 34 21 35
REMARK SMILES IDX 23 36 24 37 28 38 25 39 27 40 26 41
REMARK H PARENT 8 11 17 29
ROOT
ATOM      1  C   UNL     1      21.096   7.273  54.284  1.00  0.00     0.042 A 
ATOM      2  C   UNL     1      20.957   7.423  55.672  1.00  0.00     0.014 A 
ATOM      3  C   UNL     1      20.230   8.481  56.220  1.00  0.00     0.006 A 
ATOM      4  C   UNL     1      19.687   9.471  55.418  1.00  0.00    -0.027 A 
ATOM      5  C   UNL     1      18.903  10.623  56.030  1.00  0.00     0.046 C 
ATOM      6  C   UNL     1      19.909   9.384  54.044  1.00  0.00     0.045 A 
ATOM      7  C   UNL     1      20.620   8.301  53.512  1.00  0.00     0.040 A 
ENDROOT
BRANCH   1   8
ATOM      8  C   UNL     1      21.948   6.264  53.625  1.00  0.00     0.255 C 
ATOM      9  O   UNL     1      21.897   5.155  54.099  1.00  0.00    -0.269 OA
ATOM     10  N   UNL     1      22.478   6.616  52.444  1.00  0.00    -0.322 N 
ATOM     11  H   UNL     1      22.305   7.579  52.124  1.00  0.00     0.170 HD
BRANCH  10  12
ATOM     12  C   UNL     1      23.238   5.801  51.615  1.00  0.00     0.044 A 
ATOM     13  C   UNL     1      24.331   5.059  52.128  1.00  0.00     0.052 A 
ATOM     14  C   UNL     1      23.014   5.786  50.221  1.00  0.00     0.039 A 
ATOM     15  C   UNL     1      25.095   4.229  51.304  1.00  0.00     0.049 A 
ATOM     16  C   UNL     1      23.779   4.923  49.387  1.00  0.00     0.060 A 
ATOM     17  C   UNL     1      24.829   4.185  49.939  1.00  0.00     0.039 A 
BRANCH  15  18
ATOM     18  N   UNL     1      26.153   3.458  51.810  1.00  0.00    -0.306 N 
ATOM     19  C   UNL     1      26.512   3.227  53.136  1.00  0.00     0.116 A 
ATOM     20  C   UNL     1      27.109   2.847  51.101  1.00  0.00     0.204 A 
ATOM     21  C   UNL     1      27.647   2.496  53.145  1.00  0.00     0.056 A 
ATOM     22  N   UNL     1      27.987   2.240  51.862  1.00  0.00    -0.242 NA
ATOM     23  C   UNL     1      28.411   1.981  54.341  1.00  0.00     0.068 C 
ENDBRANCH  15  18
BRANCH  16  24
ATOM     24  C   UNL     1      23.480   4.883  47.923  1.00  0.00     0.416 C 
ATOM     25  F   UNL     1      24.243   5.694  47.164  1.00  0.00    -0.166 F 
ATOM     26  F   UNL     1      23.756   3.688  47.413  1.00  0.00    -0.166 F 
ATOM     27  F   UNL     1      22.223   5.284  47.645  1.00  0.00    -0.166 F 
ENDBRANCH  16  24
ENDBRANCH  10  12
ENDBRANCH   1   8
BRANCH   6  28
ATOM     28  N   UNL     1      19.236  10.278  53.202  1.00  0.00    -0.324 N 
ATOM     29  H   UNL     1      19.764  10.866  52.541  1.00  0.00     0.170 HD
BRANCH  28  30
ATOM     30  C   UNL     1      17.844  10.367  53.266  1.00  0.00     0.227 A 
ATOM     31  N   UNL     1      17.077  11.450  53.254  1.00  0.00    -0.221 NA
ATOM     32  N   UNL     1      17.359   9.109  53.429  1.00  0.00    -0.213 NA
ATOM     33  C   UNL     1      15.751  11.254  53.374  1.00  0.00     0.117 A 
ATOM     34  C   UNL     1      16.036   8.967  53.576  1.00  0.00     0.077 A 
ATOM     35  C   UNL     1      15.213  10.037  53.553  1.00  0.00     0.049 A 
BRANCH  34  36
ATOM     36  C   UNL     1      15.552   7.569  53.716  1.00  0.00     0.019 A 
ATOM     37  C   UNL     1      14.752   7.173  54.800  1.00  0.00     0.013 A 
ATOM     38  C   UNL     1      15.900   6.593  52.763  1.00  0.00     0.121 A 
ATOM     39  C   UNL     1      14.350   5.847  54.893  1.00  0.00     0.021 A 
ATOM     40  N   UNL     1      15.522   5.311  52.851  1.00  0.00    -0.264 NA
ATOM     41  C   UNL     1      14.736   4.965  53.884  1.00  0.00     0.111 A 
ENDBRANCH  34  36
ENDBRANCH  28  30
ENDBRANCH   6  28
TORSDOF 7
ENDMDL
MODEL 12
REMARK VINA RESULT:   -10.688      4.267     11.406
REMARK INTER + INTRA:         -13.879
REMARK INTER:                 -12.776
REMARK INTRA:                  -1.103
REMARK CONF_INDEPENDENT:        2.088
REMARK UNBOUND:                -1.103
REMARK SMILES Cc1cn(-c2cc(NC(=O)c3ccc(C)c(Nc4nccc(-c5cccnc5)n4)c3)cc(C(F)(F)F)c2)cn1
REMARK SMILES IDX 11 1 12 2 13 3 14 4 15 5 16 6 30 7 9 8 10 9 8 10 7 12 6 13
REMARK SMILES IDX 31 14 5 15 32 16 37 17 4 18 3 19 38 20 2 21 39 22 1 23 33 24
REMARK SMILES IDX 34 25 35 26 36 27 17 28 18 30 19 31 29 32 20 33 22 34 21 35
REMARK SMILES IDX 23 36 24 37 28 38 25 39 27 40 26 41
REMARK H PARENT 8 11 17 29
ROOT
ATOM      1  C   UNL     1      25.610   3.870  52.440  1.00  0.00     0.042 A 
ATOM      2  C   UNL     1      24.523   4.006  51.564  1.00  0.00     0.014 A 
ATOM      3  C   UNL     1      23.625   5.069  51.677  1.00  0.00     0.006 A 
ATOM      4  C   UNL     1      23.725   5.985  52.712  1.00  0.00    -0.027 A 
ATOM      5  C   UNL     1      22.734   7.135  52.828  1.00  0.00     0.046 C 
ATOM      6  C   UNL     1      24.741   5.796  53.647  1.00  0.00     0.045 A 
ATOM      7  C   UNL     1      25.647   4.738  53.500  1.00  0.00     0.040 A 
ENDROOT
BRANCH   1   8
ATOM      8  C   UNL     1      26.529   2.715  52.472  1.00  0.00     0.255 C 
ATOM      9  O   UNL     1      26.644   2.116  51.430  1.00  0.00    -0.269 OA
ATOM     10  N   UNL     1      27.313   2.613  53.555  1.00  0.00    -0.322 N 
ATOM     11  H   UNL     1      27.167   3.303  54.305  1.00  0.00     0.170 HD
BRANCH  10  12
ATOM     12  C   UNL     1      28.303   1.660  53.759  1.00  0.00     0.044 A 
ATOM     13  C   UNL     1      29.602   1.835  53.221  1.00  0.00     0.052 A 
ATOM     14  C   UNL     1      28.004   0.439  54.402  1.00  0.00     0.039 A 
ATOM     15  C   UNL     1      30.608   0.887  53.429  1.00  0.00     0.049 A 
ATOM     16  C   UNL     1      29.035  -0.515  54.632  1.00  0.00     0.060 A 
ATOM     17  C   UNL     1      30.311  -0.289  54.111  1.00  0.00     0.039 A 
BRANCH  15  18
ATOM     18  N   UNL     1      31.909   1.071  52.937  1.00  0.00    -0.306 N 
ATOM     19  C   UNL     1      32.510   0.502  51.816  1.00  0.00     0.116 A 
ATOM     20  C   UNL     1      32.890   1.778  53.510  1.00  0.00     0.204 A 
ATOM     21  C   UNL     1      33.800   0.900  51.780  1.00  0.00     0.056 A 
ATOM     22  N   UNL     1      34.009   1.724  52.831  1.00  0.00    -0.242 NA
ATOM     23  C   UNL     1      34.849   0.562  50.748  1.00  0.00     0.068 C 
ENDBRANCH  15  18
BRANCH  16  24
ATOM     24  C   UNL     1      28.703  -1.772  55.369  1.00  0.00     0.416 C 
ATOM     25  F   UNL     1      29.765  -2.529  55.711  1.00  0.00    -0.166 F 
ATOM     26  F   UNL     1      28.165  -1.503  56.553  1.00  0.00    -0.166 F 
ATOM     27  F   UNL     1      27.943  -2.612  54.636  1.00  0.00    -0.166 F 
ENDBRANCH  16  24
ENDBRANCH  10  12
ENDBRANCH   1   8
BRANCH   6  28
ATOM     28  N   UNL     1      24.962   6.796  54.603  1.00  0.00    -0.324 N 
ATOM     29  H   UNL     1      25.683   7.514  54.447  1.00  0.00     0.170 HD
BRANCH  28  30
ATOM     30  C   UNL     1      24.195   6.811  55.770  1.00  0.00     0.227 A 
ATOM     31  N   UNL     1      22.881   6.944  55.901  1.00  0.00    -0.221 NA
ATOM     32  N   UNL     1      25.048   6.742  56.824  1.00  0.00    -0.213 NA
ATOM     33  C   UNL     1      22.398   6.970  57.157  1.00  0.00     0.117 A 
ATOM     34  C   UNL     1      24.523   6.804  58.053  1.00  0.00     0.077 A 
ATOM     35  C   UNL     1      23.191   6.921  58.239  1.00  0.00     0.049 A 
BRANCH  34  36
ATOM     36  C   UNL     1      25.495   6.690  59.173  1.00  0.00     0.019 A 
ATOM     37  C   UNL     1      25.076   6.688  60.513  1.00  0.00     0.013 A 
ATOM     38  C   UNL     1      26.876   6.594  58.914  1.00  0.00     0.121 A 
ATOM     39  C   UNL     1      26.030   6.604  61.518  1.00  0.00     0.021 A 
ATOM     40  N   UNL     1      27.802   6.521  59.879  1.00  0.00    -0.264 NA
ATOM     41  C   UNL     1      27.371   6.495  61.151  1.00  0.00     0.111 A 
ENDBRANCH  34  36
ENDBRANCH  28  30
ENDBRANCH   6  28
TORSDOF 7
ENDMDL
MODEL 13
REMARK VINA RESULT:   -10.566      5.738     10.897
REMARK INTER + INTRA:         -13.791
REMARK INTER:                 -12.654
REMARK INTRA:                  -1.137
REMARK CONF_INDEPENDENT:        2.088
REMARK UNBOUND:                -1.137
REMARK SMILES Cc1cn(-c2cc(NC(=O)c3ccc(C)c(Nc4nccc(-c5cccnc5)n4)c3)cc(C(F)(F)F)c2)cn1
REMARK SMILES IDX 11 1 12 2 13 3 14 4 15 5 16 6 30 7 9 8 10 9 8 10 7 12 6 13
REMARK SMILES IDX 31 14 5 15 32 16 37 17 4 18 3 19 38 20 2 21 39 22 1 23 33 24
REMARK SMILES IDX 34 25 35 26 36 27 17 28 18 30 19 31 29 32 20 33 22 34 21 35
REMARK SMILES IDX 23 36 24 37 28 38 25 39 27 40 26 41
REMARK H PARENT 8 11 17 29
ROOT
ATOM      1  C   UNL     1      22.384   6.480  55.243  1.00  0.00     0.042 A 
ATOM      2  C   UNL     1      21.665   7.628  54.877  1.00  0.00     0.014 A 
ATOM      3  C   UNL     1      21.210   8.537  55.833  1.00  0.00     0.006 A 
ATOM      4  C   UNL     1      21.380   8.300  57.188  1.00  0.00    -0.027 A 
ATOM      5  C   UNL     1      20.872   9.296  58.220  1.00  0.00     0.046 C 
ATOM      6  C   UNL     1      22.003   7.110  57.562  1.00  0.00     0.045 A 
ATOM      7  C   UNL     1      22.473   6.223  56.586  1.00  0.00     0.040 A 
ENDROOT
BRANCH   1   8
ATOM      8  C   UNL     1      22.790   5.407  54.314  1.00  0.00     0.255 C 
ATOM      9  O   UNL     1      21.890   4.729  53.881  1.00  0.00    -0.269 OA
ATOM     10  N   UNL     1      24.052   5.460  53.863  1.00  0.00    -0.322 N 
ATOM     11  H   UNL     1      24.655   6.201  54.249  1.00  0.00     0.170 HD
BRANCH  10  12
ATOM     12  C   UNL     1      24.620   4.608  52.925  1.00  0.00     0.044 A 
ATOM     13  C   UNL     1      23.880   4.170  51.799  1.00  0.00     0.052 A 
ATOM     14  C   UNL     1      25.906   4.063  53.135  1.00  0.00     0.039 A 
ATOM     15  C   UNL     1      24.446   3.320  50.844  1.00  0.00     0.049 A 
ATOM     16  C   UNL     1      26.489   3.216  52.150  1.00  0.00     0.060 A 
ATOM     17  C   UNL     1      25.734   2.833  51.039  1.00  0.00     0.039 A 
BRANCH  15  18
ATOM     18  N   UNL     1      23.736   2.914  49.704  1.00  0.00    -0.306 N 
ATOM     19  C   UNL     1      22.980   1.759  49.508  1.00  0.00     0.116 A 
ATOM     20  C   UNL     1      23.715   3.525  48.514  1.00  0.00     0.204 A 
ATOM     21  C   UNL     1      22.551   1.748  48.228  1.00  0.00     0.056 A 
ATOM     22  N   UNL     1      22.994   2.877  47.631  1.00  0.00    -0.242 NA
ATOM     23  C   UNL     1      21.685   0.716  47.547  1.00  0.00     0.068 C 
ENDBRANCH  15  18
BRANCH  16  24
ATOM     24  C   UNL     1      27.875   2.702  52.369  1.00  0.00     0.416 C 
ATOM     25  F   UNL     1      27.964   1.372  52.567  1.00  0.00    -0.166 F 
ATOM     26  F   UNL     1      28.623   2.870  51.285  1.00  0.00    -0.166 F 
ATOM     27  F   UNL     1      28.446   3.223  53.475  1.00  0.00    -0.166 F 
ENDBRANCH  16  24
ENDBRANCH  10  12
ENDBRANCH   1   8
BRANCH   6  28
ATOM     28  N   UNL     1      22.329   6.925  58.911  1.00  0.00    -0.324 N 
ATOM     29  H   UNL     1      21.794   6.262  59.489  1.00  0.00     0.170 HD
BRANCH  28  30
ATOM     30  C   UNL     1      23.388   7.646  59.467  1.00  0.00     0.227 A 
ATOM     31  N   UNL     1      23.651   8.944  59.374  1.00  0.00    -0.221 NA
ATOM     32  N   UNL     1      24.206   6.761  60.093  1.00  0.00    -0.213 NA
ATOM     33  C   UNL     1      24.774   9.378  59.976  1.00  0.00     0.117 A 
ATOM     34  C   UNL     1      25.327   7.236  60.649  1.00  0.00     0.077 A 
ATOM     35  C   UNL     1      25.629   8.551  60.597  1.00  0.00     0.049 A 
BRANCH  34  36
ATOM     36  C   UNL     1      26.169   6.233  61.352  1.00  0.00     0.019 A 
ATOM     37  C   UNL     1      26.401   6.308  62.735  1.00  0.00     0.013 A 
ATOM     38  C   UNL     1      26.775   5.181  60.638  1.00  0.00     0.121 A 
ATOM     39  C   UNL     1      27.218   5.357  63.334  1.00  0.00     0.021 A 
ATOM     40  N   UNL     1      27.570   4.267  61.208  1.00  0.00    -0.264 NA
ATOM     41  C   UNL     1      27.754   4.347  62.536  1.00  0.00     0.111 A 
ENDBRANCH  34  36
ENDBRANCH  28  30
ENDBRANCH   6  28
TORSDOF 7
ENDMDL
MODEL 14
REMARK VINA RESULT:   -10.495      8.162     14.821
REMARK INTER + INTRA:         -13.915
REMARK INTER:                 -12.583
REMARK INTRA:                  -1.332
REMARK CONF_INDEPENDENT:        2.088
REMARK UNBOUND:                -1.332
REMARK SMILES Cc1cn(-c2cc(NC(=O)c3ccc(C)c(Nc4nccc(-c5cccnc5)n4)c3)cc(C(F)(F)F)c2)cn1
REMARK SMILES IDX 11 1 12 2 13 3 14 4 15 5 16 6 30 7 9 8 10 9 8 10 7 12 6 13
REMARK SMILES IDX 31 14 5 15 32 16 37 17 4 18 3 19 38 20 2 21 39 22 1 23 33 24
REMARK SMILES IDX 34 25 35 26 36 27 17 28 18 30 19 31 29 32 20 33 22 34 21 35
REMARK SMILES IDX 23 36 24 37 28 38 25 39 27 40 26 41
REMARK H PARENT 8 11 17 29
ROOT
ATOM      1  C   UNL     1      36.018  -1.623  49.654  1.00  0.00     0.042 A 
ATOM      2  C   UNL     1      35.310  -2.797  49.357  1.00  0.00     0.014 A 
ATOM      3  C   UNL     1      33.915  -2.831  49.386  1.00  0.00     0.006 A 
ATOM      4  C   UNL     1      33.177  -1.730  49.789  1.00  0.00    -0.027 A 
ATOM      5  C   UNL     1      31.656  -1.784  49.823  1.00  0.00     0.046 C 
ATOM      6  C   UNL     1      33.879  -0.592  50.185  1.00  0.00     0.045 A 
ATOM      7  C   UNL     1      35.278  -0.570  50.125  1.00  0.00     0.040 A 
ENDROOT
BRANCH   1   8
ATOM      8  C   UNL     1      37.487  -1.531  49.771  1.00  0.00     0.255 C 
ATOM      9  O   UNL     1      37.895  -1.029  50.789  1.00  0.00    -0.269 OA
ATOM     10  N   UNL     1      38.197  -2.229  48.872  1.00  0.00    -0.322 N 
ATOM     11  H   UNL     1      37.668  -2.717  48.135  1.00  0.00     0.170 HD
BRANCH  10  12
ATOM     12  C   UNL     1      39.580  -2.354  48.844  1.00  0.00     0.044 A 
ATOM     13  C   UNL     1      40.331  -2.393  50.045  1.00  0.00     0.052 A 
ATOM     14  C   UNL     1      40.279  -2.323  47.617  1.00  0.00     0.039 A 
ATOM     15  C   UNL     1      41.722  -2.528  50.027  1.00  0.00     0.049 A 
ATOM     16  C   UNL     1      41.694  -2.483  47.601  1.00  0.00     0.060 A 
ATOM     17  C   UNL     1      42.393  -2.548  48.808  1.00  0.00     0.039 A 
BRANCH  15  18
ATOM     18  N   UNL     1      42.471  -2.610  51.211  1.00  0.00    -0.306 N 
ATOM     19  C   UNL     1      42.480  -3.617  52.173  1.00  0.00     0.116 A 
ATOM     20  C   UNL     1      43.281  -1.670  51.713  1.00  0.00     0.204 A 
ATOM     21  C   UNL     1      43.289  -3.230  53.183  1.00  0.00     0.056 A 
ATOM     22  N   UNL     1      43.806  -2.023  52.860  1.00  0.00    -0.242 NA
ATOM     23  C   UNL     1      43.634  -3.989  54.441  1.00  0.00     0.068 C 
ENDBRANCH  15  18
BRANCH  16  24
ATOM     24  C   UNL     1      42.402  -2.507  46.285  1.00  0.00     0.416 C 
ATOM     25  F   UNL     1      41.599  -2.431  45.205  1.00  0.00    -0.166 F 
ATOM     26  F   UNL     1      43.167  -1.432  46.135  1.00  0.00    -0.166 F 
ATOM     27  F   UNL     1      43.082  -3.656  46.090  1.00  0.00    -0.166 F 
ENDBRANCH  16  24
ENDBRANCH  10  12
ENDBRANCH   1   8
BRANCH   6  28
ATOM     28  N   UNL     1      33.158   0.581  50.439  1.00  0.00    -0.324 N 
ATOM     29  H   UNL     1      32.776   1.136  49.660  1.00  0.00     0.170 HD
BRANCH  28  30
ATOM     30  C   UNL     1      32.960   0.994  51.759  1.00  0.00     0.227 A 
ATOM     31  N   UNL     1      33.636   1.895  52.459  1.00  0.00    -0.221 NA
ATOM     32  N   UNL     1      31.961   0.237  52.281  1.00  0.00    -0.213 NA
ATOM     33  C   UNL     1      33.261   2.072  53.740  1.00  0.00     0.117 A 
ATOM     34  C   UNL     1      31.645   0.426  53.568  1.00  0.00     0.077 A 
ATOM     35  C   UNL     1      32.292   1.344  54.317  1.00  0.00     0.049 A 
BRANCH  34  36
ATOM     36  C   UNL     1      30.522  -0.401  54.082  1.00  0.00     0.019 A 
ATOM     37  C   UNL     1      29.402   0.181  54.696  1.00  0.00     0.013 A 
ATOM     38  C   UNL     1      30.562  -1.805  53.978  1.00  0.00     0.121 A 
ATOM     39  C   UNL     1      28.394  -0.643  55.181  1.00  0.00     0.021 A 
ATOM     40  N   UNL     1      29.597  -2.605  54.450  1.00  0.00    -0.264 NA
ATOM     41  C   UNL     1      28.525  -2.020  55.010  1.00  0.00     0.111 A 
ENDBRANCH  34  36
ENDBRANCH  28  30
ENDBRANCH   6  28
TORSDOF 7
ENDMDL
MODEL 15
REMARK VINA RESULT:   -10.468      8.286     14.397
REMARK INTER + INTRA:         -13.721
REMARK INTER:                 -12.556
REMARK INTRA:                  -1.165
REMARK CONF_INDEPENDENT:        2.088
REMARK UNBOUND:                -1.165
REMARK SMILES Cc1cn(-c2cc(NC(=O)c3ccc(C)c(Nc4nccc(-c5cccnc5)n4)c3)cc(C(F)(F)F)c2)cn1
REMARK SMILES IDX 11 1 12 2 13 3 14 4 15 5 16 6 30 7 9 8 10 9 8 10 7 12 6 13
REMARK SMILES IDX 31 14 5 15 32 16 37 17 4 18 3 19 38 20 2 21 39 22 1 23 33 24
REMARK SMILES IDX 34 25 35 26 36 27 17 28 18 30 19 31 29 32 20 33 22 34 21 35
REMARK SMILES IDX 23 36 24 37 28 38 25 39 27 40 26 41
REMARK H PARENT 8 11 17 29
ROOT
ATOM      1  C   UNL     1      35.818  -1.885  49.206  1.00  0.00     0.042 A 
ATOM      2  C   UNL     1      35.044  -3.053  49.276  1.00  0.00     0.014 A 
ATOM      3  C   UNL     1      33.705  -3.014  49.667  1.00  0.00     0.006 A 
ATOM      4  C   UNL     1      33.111  -1.833  50.081  1.00  0.00    -0.027 A 
ATOM      5  C   UNL     1      31.651  -1.807  50.512  1.00  0.00     0.046 C 
ATOM      6  C   UNL     1      33.904  -0.687  50.112  1.00  0.00     0.045 A 
ATOM      7  C   UNL     1      35.239  -0.742  49.692  1.00  0.00     0.040 A 
ENDROOT
BRANCH   1   8
ATOM      8  C   UNL     1      37.268  -1.849  48.927  1.00  0.00     0.255 C 
ATOM      9  O   UNL     1      37.623  -2.465  47.952  1.00  0.00    -0.269 OA
ATOM     10  N   UNL     1      37.982  -0.950  49.621  1.00  0.00    -0.322 N 
ATOM     11  H   UNL     1      37.479  -0.405  50.336  1.00  0.00     0.170 HD
BRANCH  10  12
ATOM     12  C   UNL     1      39.336  -0.687  49.463  1.00  0.00     0.044 A 
ATOM     13  C   UNL     1      39.791   0.211  48.465  1.00  0.00     0.052 A 
ATOM     14  C   UNL     1      40.298  -1.399  50.213  1.00  0.00     0.039 A 
ATOM     15  C   UNL     1      41.152   0.489  48.305  1.00  0.00     0.049 A 
ATOM     16  C   UNL     1      41.682  -1.097  50.064  1.00  0.00     0.060 A 
ATOM     17  C   UNL     1      42.085  -0.182  49.088  1.00  0.00     0.039 A 
BRANCH  15  18
ATOM     18  N   UNL     1      41.609   1.408  47.349  1.00  0.00    -0.306 N 
ATOM     19  C   UNL     1      41.426   1.398  45.967  1.00  0.00     0.116 A 
ATOM     20  C   UNL     1      42.412   2.457  47.565  1.00  0.00     0.204 A 
ATOM     21  C   UNL     1      42.117   2.433  45.442  1.00  0.00     0.056 A 
ATOM     22  N   UNL     1      42.701   3.102  46.461  1.00  0.00    -0.242 NA
ATOM     23  C   UNL     1      42.212   2.847  43.993  1.00  0.00     0.068 C 
ENDBRANCH  15  18
BRANCH  16  24
ATOM     24  C   UNL     1      42.674  -1.823  50.913  1.00  0.00     0.416 C 
ATOM     25  F   UNL     1      42.151  -2.771  51.716  1.00  0.00    -0.166 F 
ATOM     26  F   UNL     1      43.516  -2.528  50.166  1.00  0.00    -0.166 F 
ATOM     27  F   UNL     1      43.312  -1.001  51.772  1.00  0.00    -0.166 F 
ENDBRANCH  16  24
ENDBRANCH  10  12
ENDBRANCH   1   8
BRANCH   6  28
ATOM     28  N   UNL     1      33.287   0.544  50.369  1.00  0.00    -0.324 N 
ATOM     29  H   UNL     1      32.950   1.128  49.590  1.00  0.00     0.170 HD
BRANCH  28  30
ATOM     30  C   UNL     1      33.133   0.973  51.688  1.00  0.00     0.227 A 
ATOM     31  N   UNL     1      33.869   1.837  52.375  1.00  0.00    -0.221 NA
ATOM     32  N   UNL     1      32.099   0.277  52.229  1.00  0.00    -0.213 NA
ATOM     33  C   UNL     1      33.524   2.040  53.660  1.00  0.00     0.117 A 
ATOM     34  C   UNL     1      31.814   0.490  53.519  1.00  0.00     0.077 A 
ATOM     35  C   UNL     1      32.523   1.373  54.255  1.00  0.00     0.049 A 
BRANCH  34  36
ATOM     36  C   UNL     1      30.653  -0.269  54.053  1.00  0.00     0.019 A 
ATOM     37  C   UNL     1      29.615   0.370  54.750  1.00  0.00     0.013 A 
ATOM     38  C   UNL     1      30.572  -1.665  53.885  1.00  0.00     0.121 A 
ATOM     39  C   UNL     1      28.567  -0.394  55.249  1.00  0.00     0.021 A 
ATOM     40  N   UNL     1      29.569  -2.408  54.370  1.00  0.00    -0.264 NA
ATOM     41  C   UNL     1      28.577  -1.768  55.011  1.00  0.00     0.111 A 
ENDBRANCH  34  36
ENDBRANCH  28  30
ENDBRANCH   6  28
TORSDOF 7
ENDMDL
MODEL 16
REMARK VINA RESULT:   -10.398      5.189      8.066
REMARK INTER + INTRA:         -13.670
REMARK INTER:                 -12.486
REMARK INTRA:                  -1.184
REMARK CONF_INDEPENDENT:        2.088
REMARK UNBOUND:                -1.184
REMARK SMILES Cc1cn(-c2cc(NC(=O)c3ccc(C)c(Nc4nccc(-c5cccnc5)n4)c3)cc(C(F)(F)F)c2)cn1
REMARK SMILES IDX 11 1 12 2 13 3 14 4 15 5 16 6 30 7 9 8 10 9 8 10 7 12 6 13
REMARK SMILES IDX 31 14 5 15 32 16 37 17 4 18 3 19 38 20 2 21 39 22 1 23 33 24
REMARK SMILES IDX 34 25 35 26 36 27 17 28 18 30 19 31 29 32 20 33 22 34 21 35
REMARK SMILES IDX 23 36 24 37 28 38 25 39 27 40 26 41
REMARK H PARENT 8 11 17 29
ROOT
ATOM      1  C   UNL     1      24.429   6.087  54.096  1.00  0.00     0.042 A 
ATOM      2  C   UNL     1      23.847   6.687  52.969  1.00  0.00     0.014 A 
ATOM      3  C   UNL     1      23.763   6.014  51.750  1.00  0.00     0.006 A 
ATOM      4  C   UNL     1      24.325   4.759  51.581  1.00  0.00    -0.027 A 
ATOM      5  C   UNL     1      24.232   4.039  50.243  1.00  0.00     0.046 C 
ATOM      6  C   UNL     1      24.996   4.200  52.668  1.00  0.00     0.045 A 
ATOM      7  C   UNL     1      25.047   4.881  53.891  1.00  0.00     0.040 A 
ENDROOT
BRANCH   1   8
ATOM      8  C   UNL     1      24.673   6.769  55.383  1.00  0.00     0.255 C 
ATOM      9  O   UNL     1      25.415   7.719  55.333  1.00  0.00    -0.269 OA
ATOM     10  N   UNL     1      23.866   6.425  56.397  1.00  0.00    -0.322 N 
ATOM     11  H   UNL     1      23.187   5.671  56.220  1.00  0.00     0.170 HD
BRANCH  10  12
ATOM     12  C   UNL     1      23.861   6.993  57.665  1.00  0.00     0.044 A 
ATOM     13  C   UNL     1      24.767   6.555  58.662  1.00  0.00     0.052 A 
ATOM     14  C   UNL     1      22.873   7.936  58.025  1.00  0.00     0.039 A 
ATOM     15  C   UNL     1      24.776   7.127  59.937  1.00  0.00     0.049 A 
ATOM     16  C   UNL     1      22.898   8.534  59.317  1.00  0.00     0.060 A 
ATOM     17  C   UNL     1      23.829   8.093  60.261  1.00  0.00     0.039 A 
BRANCH  15  18
ATOM     18  N   UNL     1      25.697   6.730  60.917  1.00  0.00    -0.306 N 
ATOM     19  C   UNL     1      26.024   5.443  61.341  1.00  0.00     0.116 A 
ATOM     20  C   UNL     1      26.400   7.530  61.728  1.00  0.00     0.204 A 
ATOM     21  C   UNL     1      26.898   5.545  62.367  1.00  0.00     0.056 A 
ATOM     22  N   UNL     1      27.145   6.858  62.572  1.00  0.00    -0.242 NA
ATOM     23  C   UNL     1      27.554   4.429  63.143  1.00  0.00     0.068 C 
ENDBRANCH  15  18
BRANCH  16  24
ATOM     24  C   UNL     1      21.877   9.572  59.652  1.00  0.00     0.416 C 
ATOM     25  F   UNL     1      22.228  10.836  59.341  1.00  0.00    -0.166 F 
ATOM     26  F   UNL     1      20.775   9.408  58.930  1.00  0.00    -0.166 F 
ATOM     27  F   UNL     1      21.622   9.634  60.975  1.00  0.00    -0.166 F 
ENDBRANCH  16  24
ENDBRANCH  10  12
ENDBRANCH   1   8
BRANCH   6  28
ATOM     28  N   UNL     1      25.428   2.871  52.574  1.00  0.00    -0.324 N 
ATOM     29  H   UNL     1      24.771   2.098  52.744  1.00  0.00     0.170 HD
BRANCH  28  30
ATOM     30  C   UNL     1      26.759   2.604  52.246  1.00  0.00     0.227 A 
ATOM     31  N   UNL     1      27.541   3.222  51.370  1.00  0.00    -0.221 NA
ATOM     32  N   UNL     1      27.141   1.502  52.942  1.00  0.00    -0.213 NA
ATOM     33  C   UNL     1      28.785   2.729  51.215  1.00  0.00     0.117 A 
ATOM     34  C   UNL     1      28.375   1.030  52.730  1.00  0.00     0.077 A 
ATOM     35  C   UNL     1      29.215   1.635  51.863  1.00  0.00     0.049 A 
BRANCH  34  36
ATOM     36  C   UNL     1      28.757  -0.156  53.541  1.00  0.00     0.019 A 
ATOM     37  C   UNL     1      28.011  -0.551  54.663  1.00  0.00     0.013 A 
ATOM     38  C   UNL     1      29.898  -0.912  53.209  1.00  0.00     0.121 A 
ATOM     39  C   UNL     1      28.429  -1.653  55.398  1.00  0.00     0.021 A 
ATOM     40  N   UNL     1      30.311  -1.970  53.919  1.00  0.00    -0.264 NA
ATOM     41  C   UNL     1      29.564  -2.341  54.971  1.00  0.00     0.111 A 
ENDBRANCH  34  36
ENDBRANCH  28  30
ENDBRANCH   6  28
TORSDOF 7
ENDMDL
MODEL 17
REMARK VINA RESULT:   -10.347      4.327     10.870
REMARK INTER + INTRA:         -13.605
REMARK INTER:                 -12.435
REMARK INTRA:                  -1.170
REMARK CONF_INDEPENDENT:        2.088
REMARK UNBOUND:                -1.170
REMARK SMILES Cc1cn(-c2cc(NC(=O)c3ccc(C)c(Nc4nccc(-c5cccnc5)n4)c3)cc(C(F)(F)F)c2)cn1
REMARK SMILES IDX 11 1 12 2 13 3 14 4 15 5 16 6 30 7 9 8 10 9 8 10 7 12 6 13
REMARK SMILES IDX 31 14 5 15 32 16 37 17 4 18 3 19 38 20 2 21 39 22 1 23 33 24
REMARK SMILES IDX 34 25 35 26 36 27 17 28 18 30 19 31 29 32 20 33 22 34 21 35
REMARK SMILES IDX 23 36 24 37 28 38 25 39 27 40 26 41
REMARK H PARENT 8 11 17 29
ROOT
ATOM      1  C   UNL     1      22.337   6.654  55.244  1.00  0.00     0.042 A 
ATOM      2  C   UNL     1      21.567   7.789  54.949  1.00  0.00     0.014 A 
ATOM      3  C   UNL     1      21.103   8.634  55.958  1.00  0.00     0.006 A 
ATOM      4  C   UNL     1      21.314   8.340  57.296  1.00  0.00    -0.027 A 
ATOM      5  C   UNL     1      20.796   9.267  58.386  1.00  0.00     0.046 C 
ATOM      6  C   UNL     1      21.990   7.159  57.598  1.00  0.00     0.045 A 
ATOM      7  C   UNL     1      22.469   6.337  56.571  1.00  0.00     0.040 A 
ENDROOT
BRANCH   1   8
ATOM      8  C   UNL     1      22.759   5.641  54.256  1.00  0.00     0.255 C 
ATOM      9  O   UNL     1      21.926   4.817  53.970  1.00  0.00    -0.269 OA
ATOM     10  N   UNL     1      23.907   5.890  53.607  1.00  0.00    -0.322 N 
ATOM     11  H   UNL     1      24.434   6.727  53.894  1.00  0.00     0.170 HD
BRANCH  10  12
ATOM     12  C   UNL     1      24.449   5.122  52.584  1.00  0.00     0.044 A 
ATOM     13  C   UNL     1      25.516   4.224  52.837  1.00  0.00     0.052 A 
ATOM     14  C   UNL     1      24.031   5.307  51.249  1.00  0.00     0.039 A 
ATOM     15  C   UNL     1      26.062   3.440  51.816  1.00  0.00     0.049 A 
ATOM     16  C   UNL     1      24.573   4.492  50.214  1.00  0.00     0.060 A 
ATOM     17  C   UNL     1      25.603   3.597  50.512  1.00  0.00     0.039 A 
BRANCH  15  18
ATOM     18  N   UNL     1      27.090   2.518  52.064  1.00  0.00    -0.306 N 
ATOM     19  C   UNL     1      28.204   2.218  51.282  1.00  0.00     0.116 A 
ATOM     20  C   UNL     1      27.162   1.653  53.083  1.00  0.00     0.204 A 
ATOM     21  C   UNL     1      28.874   1.205  51.874  1.00  0.00     0.056 A 
ATOM     22  N   UNL     1      28.224   0.888  53.016  1.00  0.00    -0.242 NA
ATOM     23  C   UNL     1      30.152   0.545  51.417  1.00  0.00     0.068 C 
ENDBRANCH  15  18
BRANCH  16  24
ATOM     24  C   UNL     1      24.069   4.667  48.819  1.00  0.00     0.416 C 
ATOM     25  F   UNL     1      22.817   5.159  48.723  1.00  0.00    -0.166 F 
ATOM     26  F   UNL     1      24.775   5.585  48.168  1.00  0.00    -0.166 F 
ATOM     27  F   UNL     1      23.999   3.499  48.148  1.00  0.00    -0.166 F 
ENDBRANCH  16  24
ENDBRANCH  10  12
ENDBRANCH   1   8
BRANCH   6  28
ATOM     28  N   UNL     1      22.357   6.923  58.930  1.00  0.00    -0.324 N 
ATOM     29  H   UNL     1      21.853   6.222  59.491  1.00  0.00     0.170 HD
BRANCH  28  30
ATOM     30  C   UNL     1      23.412   7.646  59.489  1.00  0.00     0.227 A 
ATOM     31  N   UNL     1      23.668   8.945  59.405  1.00  0.00    -0.221 NA
ATOM     32  N   UNL     1      24.235   6.761  60.109  1.00  0.00    -0.213 NA
ATOM     33  C   UNL     1      24.790   9.381  60.009  1.00  0.00     0.117 A 
ATOM     34  C   UNL     1      25.354   7.237  60.667  1.00  0.00     0.077 A 
ATOM     35  C   UNL     1      25.650   8.554  60.624  1.00  0.00     0.049 A 
BRANCH  34  36
ATOM     36  C   UNL     1      26.202   6.234  61.363  1.00  0.00     0.019 A 
ATOM     37  C   UNL     1      26.400   6.275  62.752  1.00  0.00     0.013 A 
ATOM     38  C   UNL     1      26.847   5.215  60.635  1.00  0.00     0.121 A 
ATOM     39  C   UNL     1      27.223   5.327  63.345  1.00  0.00     0.021 A 
ATOM     40  N   UNL     1      27.648   4.302  61.200  1.00  0.00    -0.264 NA
ATOM     41  C   UNL     1      27.799   4.350  62.534  1.00  0.00     0.111 A 
ENDBRANCH  34  36
ENDBRANCH  28  30
ENDBRANCH   6  28
TORSDOF 7
ENDMDL
MODEL 18
REMARK VINA RESULT:   -10.192      7.800     14.380
REMARK INTER + INTRA:         -13.568
REMARK INTER:                 -12.280
REMARK INTRA:                  -1.288
REMARK CONF_INDEPENDENT:        2.088
REMARK UNBOUND:                -1.288
REMARK SMILES Cc1cn(-c2cc(NC(=O)c3ccc(C)c(Nc4nccc(-c5cccnc5)n4)c3)cc(C(F)(F)F)c2)cn1
REMARK SMILES IDX 11 1 12 2 13 3 14 4 15 5 16 6 30 7 9 8 10 9 8 10 7 12 6 13
REMARK SMILES IDX 31 14 5 15 32 16 37 17 4 18 3 19 38 20 2 21 39 22 1 23 33 24
REMARK SMILES IDX 34 25 35 26 36 27 17 28 18 30 19 31 29 32 20 33 22 34 21 35
REMARK SMILES IDX 23 36 24 37 28 38 25 39 27 40 26 41
REMARK H PARENT 8 11 17 29
ROOT
ATOM      1  C   UNL     1      36.459  -1.282  49.627  1.00  0.00     0.042 A 
ATOM      2  C   UNL     1      35.914  -2.546  49.357  1.00  0.00     0.014 A 
ATOM      3  C   UNL     1      34.536  -2.768  49.399  1.00  0.00     0.006 A 
ATOM      4  C   UNL     1      33.660  -1.769  49.790  1.00  0.00    -0.027 A 
ATOM      5  C   UNL     1      32.160  -2.027  49.839  1.00  0.00     0.046 C 
ATOM      6  C   UNL     1      34.204  -0.540  50.160  1.00  0.00     0.045 A 
ATOM      7  C   UNL     1      35.587  -0.330  50.087  1.00  0.00     0.040 A 
ENDROOT
BRANCH   1   8
ATOM      8  C   UNL     1      37.902  -0.991  49.729  1.00  0.00     0.255 C 
ATOM      9  O   UNL     1      38.560  -1.825  50.301  1.00  0.00    -0.269 OA
ATOM     10  N   UNL     1      38.357   0.019  48.972  1.00  0.00    -0.322 N 
ATOM     11  H   UNL     1      37.659   0.551  48.434  1.00  0.00     0.170 HD
BRANCH  10  12
ATOM     12  C   UNL     1      39.684   0.413  48.848  1.00  0.00     0.044 A 
ATOM     13  C   UNL     1      40.671  -0.068  49.743  1.00  0.00     0.052 A 
ATOM     14  C   UNL     1      40.056   1.394  47.904  1.00  0.00     0.039 A 
ATOM     15  C   UNL     1      42.010   0.314  49.620  1.00  0.00     0.049 A 
ATOM     16  C   UNL     1      41.424   1.765  47.766  1.00  0.00     0.060 A 
ATOM     17  C   UNL     1      42.371   1.244  48.650  1.00  0.00     0.039 A 
BRANCH  15  18
ATOM     18  N   UNL     1      43.003  -0.189  50.475  1.00  0.00    -0.306 N 
ATOM     19  C   UNL     1      43.025  -1.391  51.179  1.00  0.00     0.116 A 
ATOM     20  C   UNL     1      44.116   0.441  50.867  1.00  0.00     0.204 A 
ATOM     21  C   UNL     1      44.140  -1.413  51.941  1.00  0.00     0.056 A 
ATOM     22  N   UNL     1      44.826  -0.272  51.707  1.00  0.00    -0.242 NA
ATOM     23  C   UNL     1      44.614  -2.511  52.862  1.00  0.00     0.068 C 
ENDBRANCH  15  18
BRANCH  16  24
ATOM     24  C   UNL     1      41.798   2.762  46.717  1.00  0.00     0.416 C 
ATOM     25  F   UNL     1      42.800   3.597  47.056  1.00  0.00    -0.166 F 
ATOM     26  F   UNL     1      42.295   2.160  45.642  1.00  0.00    -0.166 F 
ATOM     27  F   UNL     1      40.782   3.597  46.417  1.00  0.00    -0.166 F 
ENDBRANCH  16  24
ENDBRANCH  10  12
ENDBRANCH   1   8
BRANCH   6  28
ATOM     28  N   UNL     1      33.332   0.529  50.402  1.00  0.00    -0.324 N 
ATOM     29  H   UNL     1      32.848   0.992  49.619  1.00  0.00     0.170 HD
BRANCH  28  30
ATOM     30  C   UNL     1      33.124   0.963  51.712  1.00  0.00     0.227 A 
ATOM     31  N   UNL     1      33.790   1.883  52.400  1.00  0.00    -0.221 NA
ATOM     32  N   UNL     1      32.128   0.209  52.243  1.00  0.00    -0.213 NA
ATOM     33  C   UNL     1      33.407   2.079  53.676  1.00  0.00     0.117 A 
ATOM     34  C   UNL     1      31.804   0.418  53.524  1.00  0.00     0.077 A 
ATOM     35  C   UNL     1      32.440   1.354  54.261  1.00  0.00     0.049 A 
BRANCH  34  36
ATOM     36  C   UNL     1      30.685  -0.408  54.047  1.00  0.00     0.019 A 
ATOM     37  C   UNL     1      29.599   0.169  54.726  1.00  0.00     0.013 A 
ATOM     38  C   UNL     1      30.693  -1.808  53.886  1.00  0.00     0.121 A 
ATOM     39  C   UNL     1      28.594  -0.656  55.215  1.00  0.00     0.021 A 
ATOM     40  N   UNL     1      29.730  -2.608  54.362  1.00  0.00    -0.264 NA
ATOM     41  C   UNL     1      28.692  -2.027  54.985  1.00  0.00     0.111 A 
ENDBRANCH  34  36
ENDBRANCH  28  30
ENDBRANCH   6  28
TORSDOF 7
ENDMDL
MODEL 19
REMARK VINA RESULT:   -10.189      8.390     14.860
REMARK INTER + INTRA:         -13.588
REMARK INTER:                 -12.277
REMARK INTRA:                  -1.311
REMARK CONF_INDEPENDENT:        2.088
REMARK UNBOUND:                -1.311
REMARK SMILES Cc1cn(-c2cc(NC(=O)c3ccc(C)c(Nc4nccc(-c5cccnc5)n4)c3)cc(C(F)(F)F)c2)cn1
REMARK SMILES IDX 11 1 12 2 13 3 14 4 15 5 16 6 30 7 9 8 10 9 8 10 7 12 6 13
REMARK SMILES IDX 31 14 5 15 32 16 37 17 4 18 3 19 38 20 2 21 39 22 1 23 33 24
REMARK SMILES IDX 34 25 35 26 36 27 17 28 18 30 19 31 29 32 20 33 22 34 21 35
REMARK SMILES IDX 23 36 24 37 28 38 25 39 27 40 26 41
REMARK H PARENT 8 11 17 29
ROOT
ATOM      1  C   UNL     1      36.019  -1.672  49.265  1.00  0.00     0.042 A 
ATOM      2  C   UNL     1      35.279  -2.862  49.196  1.00  0.00     0.014 A 
ATOM      3  C   UNL     1      33.911  -2.885  49.474  1.00  0.00     0.006 A 
ATOM      4  C   UNL     1      33.247  -1.749  49.909  1.00  0.00    -0.027 A 
ATOM      5  C   UNL     1      31.757  -1.790  50.215  1.00  0.00     0.046 C 
ATOM      6  C   UNL     1      33.999  -0.587  50.079  1.00  0.00     0.045 A 
ATOM      7  C   UNL     1      35.365  -0.579  49.771  1.00  0.00     0.040 A 
ENDROOT
BRANCH   1   8
ATOM      8  C   UNL     1      37.484  -1.580  49.113  1.00  0.00     0.255 C 
ATOM      9  O   UNL     1      38.093  -1.302  50.117  1.00  0.00    -0.269 OA
ATOM     10  N   UNL     1      37.991  -2.053  47.964  1.00  0.00    -0.322 N 
ATOM     11  H   UNL     1      37.318  -2.380  47.256  1.00  0.00     0.170 HD
BRANCH  10  12
ATOM     12  C   UNL     1      39.339  -2.143  47.643  1.00  0.00     0.044 A 
ATOM     13  C   UNL     1      40.177  -1.002  47.698  1.00  0.00     0.052 A 
ATOM     14  C   UNL     1      39.878  -3.346  47.138  1.00  0.00     0.039 A 
ATOM     15  C   UNL     1      41.537  -1.084  47.387  1.00  0.00     0.049 A 
ATOM     16  C   UNL     1      41.269  -3.434  46.842  1.00  0.00     0.060 A 
ATOM     17  C   UNL     1      42.066  -2.291  46.939  1.00  0.00     0.039 A 
BRANCH  15  18
ATOM     18  N   UNL     1      42.384   0.030  47.479  1.00  0.00    -0.306 N 
ATOM     19  C   UNL     1      42.117   1.362  47.165  1.00  0.00     0.116 A 
ATOM     20  C   UNL     1      43.681   0.026  47.809  1.00  0.00     0.204 A 
ATOM     21  C   UNL     1      43.255   2.070  47.328  1.00  0.00     0.056 A 
ATOM     22  N   UNL     1      44.214   1.222  47.763  1.00  0.00    -0.242 NA
ATOM     23  C   UNL     1      43.464   3.552  47.130  1.00  0.00     0.068 C 
ENDBRANCH  15  18
BRANCH  16  24
ATOM     24  C   UNL     1      41.824  -4.737  46.366  1.00  0.00     0.416 C 
ATOM     25  F   UNL     1      41.124  -5.826  46.742  1.00  0.00    -0.166 F 
ATOM     26  F   UNL     1      41.775  -4.822  45.042  1.00  0.00    -0.166 F 
ATOM     27  F   UNL     1      43.060  -4.975  46.852  1.00  0.00    -0.166 F 
ENDBRANCH  16  24
ENDBRANCH  10  12
ENDBRANCH   1   8
BRANCH   6  28
ATOM     28  N   UNL     1      33.324   0.608  50.359  1.00  0.00    -0.324 N 
ATOM     29  H   UNL     1      32.952   1.187  49.593  1.00  0.00     0.170 HD
BRANCH  28  30
ATOM     30  C   UNL     1      33.159   1.008  51.687  1.00  0.00     0.227 A 
ATOM     31  N   UNL     1      33.876   1.876  52.390  1.00  0.00    -0.221 NA
ATOM     32  N   UNL     1      32.141   0.280  52.213  1.00  0.00    -0.213 NA
ATOM     33  C   UNL     1      33.526   2.048  53.679  1.00  0.00     0.117 A 
ATOM     34  C   UNL     1      31.850   0.462  53.507  1.00  0.00     0.077 A 
ATOM     35  C   UNL     1      32.539   1.347  54.260  1.00  0.00     0.049 A 
BRANCH  34  36
ATOM     36  C   UNL     1      30.706  -0.332  54.026  1.00  0.00     0.019 A 
ATOM     37  C   UNL     1      29.626   0.278  54.684  1.00  0.00     0.013 A 
ATOM     38  C   UNL     1      30.684  -1.733  53.882  1.00  0.00     0.121 A 
ATOM     39  C   UNL     1      28.596  -0.517  55.170  1.00  0.00     0.021 A 
ATOM     40  N   UNL     1      29.698  -2.505  54.356  1.00  0.00    -0.264 NA
ATOM     41  C   UNL     1      28.666  -1.894  54.959  1.00  0.00     0.111 A 
ENDBRANCH  34  36
ENDBRANCH  28  30
ENDBRANCH   6  28
TORSDOF 7
ENDMDL
MODEL 20
REMARK VINA RESULT:    -9.647      4.168     10.505
REMARK INTER + INTRA:         -13.655
REMARK INTER:                 -11.735
REMARK INTRA:                  -1.920
REMARK CONF_INDEPENDENT:        2.088
REMARK UNBOUND:                -1.920
REMARK SMILES Cc1cn(-c2cc(NC(=O)c3ccc(C)c(Nc4nccc(-c5cccnc5)n4)c3)cc(C(F)(F)F)c2)cn1
REMARK SMILES IDX 11 1 12 2 13 3 14 4 15 5 16 6 30 7 9 8 10 9 8 10 7 12 6 13
REMARK SMILES IDX 31 14 5 15 32 16 37 17 4 18 3 19 38 20 2 21 39 22 1 23 33 24
REMARK SMILES IDX 34 25 35 26 36 27 17 28 18 30 19 31 29 32 20 33 22 34 21 35
REMARK SMILES IDX 23 36 24 37 28 38 25 39 27 40 26 41
REMARK H PARENT 8 11 17 29
ROOT
ATOM      1  C   UNL     1      21.577   7.107  53.834  1.00  0.00     0.042 A 
ATOM      2  C   UNL     1      21.135   8.396  53.499  1.00  0.00     0.014 A 
ATOM      3  C   UNL     1      20.534   9.227  54.446  1.00  0.00     0.006 A 
ATOM      4  C   UNL     1      20.275   8.781  55.732  1.00  0.00    -0.027 A 
ATOM      5  C   UNL     1      19.612   9.696  56.752  1.00  0.00     0.046 C 
ATOM      6  C   UNL     1      20.617   7.466  56.041  1.00  0.00     0.045 A 
ATOM      7  C   UNL     1      21.242   6.656  55.084  1.00  0.00     0.040 A 
ENDROOT
BRANCH   1   8
ATOM      8  C   UNL     1      22.104   6.120  52.871  1.00  0.00     0.255 C 
ATOM      9  O   UNL     1      21.308   5.709  52.063  1.00  0.00    -0.269 OA
ATOM     10  N   UNL     1      23.437   5.980  52.837  1.00  0.00    -0.322 N 
ATOM     11  H   UNL     1      23.982   6.519  53.526  1.00  0.00     0.170 HD
BRANCH  10  12
ATOM     12  C   UNL     1      24.152   5.175  51.959  1.00  0.00     0.044 A 
ATOM     13  C   UNL     1      25.266   4.422  52.404  1.00  0.00     0.052 A 
ATOM     14  C   UNL     1      23.858   5.184  50.577  1.00  0.00     0.039 A 
ATOM     15  C   UNL     1      25.984   3.602  51.530  1.00  0.00     0.049 A 
ATOM     16  C   UNL     1      24.577   4.331  49.692  1.00  0.00     0.060 A 
ATOM     17  C   UNL     1      25.650   3.581  50.180  1.00  0.00     0.039 A 
BRANCH  15  18
ATOM     18  N   UNL     1      27.062   2.820  51.970  1.00  0.00    -0.306 N 
ATOM     19  C   UNL     1      27.312   2.310  53.243  1.00  0.00     0.116 A 
ATOM     20  C   UNL     1      28.143   2.472  51.261  1.00  0.00     0.204 A 
ATOM     21  C   UNL     1      28.512   1.689  53.221  1.00  0.00     0.056 A 
ATOM     22  N   UNL     1      29.000   1.774  51.964  1.00  0.00    -0.242 NA
ATOM     23  C   UNL     1      29.205   0.967  54.352  1.00  0.00     0.068 C 
ENDBRANCH  15  18
BRANCH  16  24
ATOM     24  C   UNL     1      24.205   4.315  48.245  1.00  0.00     0.416 C 
ATOM     25  F   UNL     1      22.932   4.668  47.980  1.00  0.00    -0.166 F 
ATOM     26  F   UNL     1      24.891   5.227  47.566  1.00  0.00    -0.166 F 
ATOM     27  F   UNL     1      24.308   3.084  47.703  1.00  0.00    -0.166 F 
ENDBRANCH  16  24
ENDBRANCH  10  12
ENDBRANCH   1   8
BRANCH   6  28
ATOM     28  N   UNL     1      20.515   7.046  57.373  1.00  0.00    -0.324 N 
ATOM     29  H   UNL     1      19.668   6.560  57.701  1.00  0.00     0.170 HD
BRANCH  28  30
ATOM     30  C   UNL     1      21.570   7.292  58.254  1.00  0.00     0.227 A 
ATOM     31  N   UNL     1      21.525   7.730  59.506  1.00  0.00    -0.221 NA
ATOM     32  N   UNL     1      22.729   7.077  57.579  1.00  0.00    -0.213 NA
ATOM     33  C   UNL     1      22.707   7.925  60.122  1.00  0.00     0.117 A 
ATOM     34  C   UNL     1      23.877   7.315  58.222  1.00  0.00     0.077 A 
ATOM     35  C   UNL     1      23.884   7.745  59.502  1.00  0.00     0.049 A 
BRANCH  34  36
ATOM     36  C   UNL     1      25.116   7.032  57.452  1.00  0.00     0.019 A 
ATOM     37  C   UNL     1      25.097   6.887  56.055  1.00  0.00     0.013 A 
ATOM     38  C   UNL     1      26.351   6.884  58.113  1.00  0.00     0.121 A 
ATOM     39  C   UNL     1      26.282   6.597  55.391  1.00  0.00     0.021 A 
ATOM     40  N   UNL     1      27.495   6.597  57.478  1.00  0.00    -0.264 NA
ATOM     41  C   UNL     1      27.452   6.489  56.140  1.00  0.00     0.111 A 
ENDBRANCH  34  36
ENDBRANCH  28  30
ENDBRANCH   6  28
TORSDOF 7
ENDMDL
