MODEL 1
REMARK VINA RESULT:   -14.414      0.000      0.000
REMARK INTER + INTRA:         -17.666
REMARK INTER:                 -16.503
REMARK INTRA:                  -1.163
REMARK CONF_INDEPENDENT:        2.088
REMARK UNBOUND:                -1.163
REMARK SMILES Cc1cn(-c2cc(NC(=O)c3ccc(C)c(Nc4nccc(-c5cccnc5)n4)c3)cc(C(F)(F)F)c2)cn1
REMARK SMILES IDX 11 1 12 2 13 3 14 4 15 5 16 6 30 7 9 8 10 9 8 10 7 12 6 13
REMARK SMILES IDX 31 14 5 15 32 16 37 17 4 18 3 19 38 20 2 21 39 22 1 23 33 24
REMARK SMILES IDX 34 25 35 26 36 27 17 28 18 30 19 31 29 32 20 33 22 34 21 35
REMARK SMILES IDX 23 36 24 37 28 38 25 39 27 40 26 41
REMARK H PARENT 8 11 17 29
ROOT
ATOM      1  C   UNL     1      27.952   1.670  53.051  1.00  0.00     0.042 A 
ATOM      2  C   UNL     1      27.643   1.128  54.308  1.00  0.00     0.014 A 
ATOM      3  C   UNL     1      28.353   0.044  54.826  1.00  0.00     0.006 A 
ATOM      4  C   UNL     1      29.336  -0.592  54.085  1.00  0.00    -0.027 A 
ATOM      5  C   UNL     1      30.097  -1.778  54.660  1.00  0.00     0.046 C 
ATOM      6  C   UNL     1      29.576  -0.123  52.794  1.00  0.00     0.045 A 
ATOM      7  C   UNL     1      28.870   0.982  52.302  1.00  0.00     0.040 A 
ENDROOT
BRANCH   1   8
ATOM      8  C   UNL     1      27.175   2.728  52.375  1.00  0.00     0.255 C 
ATOM      9  O   UNL     1      27.458   2.918  51.217  1.00  0.00    -0.269 OA
ATOM     10  N   UNL     1      26.093   3.176  53.028  1.00  0.00    -0.322 N 
ATOM     11  H   UNL     1      25.927   2.799  53.972  1.00  0.00     0.170 HD
BRANCH  10  12
ATOM     12  C   UNL     1      25.176   4.103  52.548  1.00  0.00     0.044 A 
ATOM     13  C   UNL     1      24.255   4.734  53.420  1.00  0.00     0.052 A 
ATOM     14  C   UNL     1      25.060   4.346  51.162  1.00  0.00     0.039 A 
ATOM     15  C   UNL     1      23.335   5.674  52.948  1.00  0.00     0.049 A 
ATOM     16  C   UNL     1      24.138   5.321  50.685  1.00  0.00     0.060 A 
ATOM     17  C   UNL     1      23.268   5.942  51.585  1.00  0.00     0.039 A 
BRANCH  15  18
ATOM     18  N   UNL     1      22.448   6.336  53.810  1.00  0.00    -0.306 N 
ATOM     19  C   UNL     1      22.119   6.032  55.130  1.00  0.00     0.116 A 
ATOM     20  C   UNL     1      21.650   7.365  53.502  1.00  0.00     0.204 A 
ATOM     21  C   UNL     1      21.156   6.890  55.533  1.00  0.00     0.056 A 
ATOM     22  N   UNL     1      20.900   7.737  54.511  1.00  0.00    -0.242 NA
ATOM     23  C   UNL     1      20.491   6.971  56.886  1.00  0.00     0.068 C 
ENDBRANCH  15  18
BRANCH  16  24
ATOM     24  C   UNL     1      24.078   5.602  49.219  1.00  0.00     0.416 C 
ATOM     25  F   UNL     1      24.884   6.596  48.796  1.00  0.00    -0.166 F 
ATOM     26  F   UNL     1      24.526   4.568  48.516  1.00  0.00    -0.166 F 
ATOM     27  F   UNL     1      22.852   6.002  48.823  1.00  0.00    -0.166 F 
ENDBRANCH  16  24
ENDBRANCH  10  12
ENDBRANCH   1   8
BRANCH   6  28
ATOM     28  N   UNL     1      30.670  -0.642  52.090  1.00  0.00    -0.324 N 
ATOM     29  H   UNL     1      30.549  -1.453  51.466  1.00  0.00     0.170 HD
BRANCH  28  30
ATOM     30  C   UNL     1      31.926  -0.051  52.240  1.00  0.00     0.227 A 
ATOM     31  N   UNL     1      32.300   0.909  53.076  1.00  0.00    -0.221 NA
ATOM     32  N   UNL     1      32.745  -0.579  51.294  1.00  0.00    -0.213 NA
ATOM     33  C   UNL     1      33.575   1.331  52.982  1.00  0.00     0.117 A 
ATOM     34  C   UNL     1      33.994  -0.105  51.218  1.00  0.00     0.077 A 
ATOM     35  C   UNL     1      34.427   0.859  52.059  1.00  0.00     0.049 A 
BRANCH  34  36
ATOM     36  C   UNL     1      34.861  -0.740  50.191  1.00  0.00     0.019 A 
ATOM     37  C   UNL     1      36.169  -0.288  49.951  1.00  0.00     0.013 A 
ATOM     38  C   UNL     1      34.381  -1.812  49.413  1.00  0.00     0.121 A 
ATOM     39  C   UNL     1      36.924  -0.904  48.961  1.00  0.00     0.021 A 
ATOM     40  N   UNL     1      35.101  -2.403  48.452  1.00  0.00    -0.264 NA
ATOM     41  C   UNL     1      36.358  -1.969  48.261  1.00  0.00     0.111 A 
ENDBRANCH  34  36
ENDBRANCH  28  30
ENDBRANCH   6  28
TORSDOF 7
ENDMDL
MODEL 2
REMARK VINA RESULT:   -12.020      1.484      2.207
REMARK INTER + INTRA:         -15.570
REMARK INTER:                 -14.108
REMARK INTRA:                  -1.462
REMARK CONF_INDEPENDENT:        2.088
REMARK UNBOUND:                -1.462
REMARK SMILES Cc1cn(-c2cc(NC(=O)c3ccc(C)c(Nc4nccc(-c5cccnc5)n4)c3)cc(C(F)(F)F)c2)cn1
REMARK SMILES IDX 11 1 12 2 13 3 14 4 15 5 16 6 30 7 9 8 10 9 8 10 7 12 6 13
REMARK SMILES IDX 31 14 5 15 32 16 37 17 4 18 3 19 38 20 2 21 39 22 1 23 33 24
REMARK SMILES IDX 34 25 35 26 36 27 17 28 18 30 19 31 29 32 20 33 22 34 21 35
REMARK SMILES IDX 23 36 24 37 28 38 25 39 27 40 26 41
REMARK H PARENT 8 11 17 29
ROOT
ATOM      1  C   UNL     1      27.834   1.654  53.261  1.00  0.00     0.042 A 
ATOM      2  C   UNL     1      27.195   0.441  53.561  1.00  0.00     0.014 A 
ATOM      3  C   UNL     1      27.849  -0.571  54.266  1.00  0.00     0.006 A 
ATOM      4  C   UNL     1      29.182  -0.450  54.624  1.00  0.00    -0.027 A 
ATOM      5  C   UNL     1      29.885  -1.565  55.386  1.00  0.00     0.046 C 
ATOM      6  C   UNL     1      29.853   0.709  54.238  1.00  0.00     0.045 A 
ATOM      7  C   UNL     1      29.171   1.723  53.554  1.00  0.00     0.040 A 
ENDROOT
BRANCH   1   8
ATOM      8  C   UNL     1      27.264   2.721  52.416  1.00  0.00     0.255 C 
ATOM      9  O   UNL     1      27.866   2.950  51.395  1.00  0.00    -0.269 OA
ATOM     10  N   UNL     1      26.030   3.135  52.737  1.00  0.00    -0.322 N 
ATOM     11  H   UNL     1      25.605   2.727  53.582  1.00  0.00     0.170 HD
BRANCH  10  12
ATOM     12  C   UNL     1      25.272   4.063  52.035  1.00  0.00     0.044 A 
ATOM     13  C   UNL     1      24.503   5.039  52.717  1.00  0.00     0.052 A 
ATOM     14  C   UNL     1      25.154   3.979  50.630  1.00  0.00     0.039 A 
ATOM     15  C   UNL     1      23.745   5.984  52.019  1.00  0.00     0.049 A 
ATOM     16  C   UNL     1      24.400   4.956  49.920  1.00  0.00     0.060 A 
ATOM     17  C   UNL     1      23.681   5.920  50.631  1.00  0.00     0.039 A 
BRANCH  15  18
ATOM     18  N   UNL     1      23.014   6.980  52.683  1.00  0.00    -0.306 N 
ATOM     19  C   UNL     1      22.678   8.259  52.244  1.00  0.00     0.116 A 
ATOM     20  C   UNL     1      22.558   6.936  53.940  1.00  0.00     0.204 A 
ATOM     21  C   UNL     1      22.043   8.898  53.251  1.00  0.00     0.056 A 
ATOM     22  N   UNL     1      21.950   8.042  54.292  1.00  0.00    -0.242 NA
ATOM     23  C   UNL     1      21.472  10.295  53.250  1.00  0.00     0.068 C 
ENDBRANCH  15  18
BRANCH  16  24
ATOM     24  C   UNL     1      24.342   4.879  48.429  1.00  0.00     0.416 C 
ATOM     25  F   UNL     1      23.100   4.899  47.905  1.00  0.00    -0.166 F 
ATOM     26  F   UNL     1      24.892   5.952  47.874  1.00  0.00    -0.166 F 
ATOM     27  F   UNL     1      24.864   3.729  47.954  1.00  0.00    -0.166 F 
ENDBRANCH  16  24
ENDBRANCH  10  12
ENDBRANCH   1   8
BRANCH   6  28
ATOM     28  N   UNL     1      31.148   0.924  54.727  1.00  0.00    -0.324 N 
ATOM     29  H   UNL     1      31.328   0.915  55.741  1.00  0.00     0.170 HD
BRANCH  28  30
ATOM     30  C   UNL     1      32.192   1.152  53.829  1.00  0.00     0.227 A 
ATOM     31  N   UNL     1      33.154   2.065  53.885  1.00  0.00    -0.221 NA
ATOM     32  N   UNL     1      32.029   0.301  52.784  1.00  0.00    -0.213 NA
ATOM     33  C   UNL     1      34.019   2.096  52.853  1.00  0.00     0.117 A 
ATOM     34  C   UNL     1      32.895   0.391  51.767  1.00  0.00     0.077 A 
ATOM     35  C   UNL     1      33.901   1.291  51.785  1.00  0.00     0.049 A 
BRANCH  34  36
ATOM     36  C   UNL     1      32.695  -0.585  50.665  1.00  0.00     0.019 A 
ATOM     37  C   UNL     1      31.412  -0.998  50.272  1.00  0.00     0.013 A 
ATOM     38  C   UNL     1      33.800  -1.138  49.989  1.00  0.00     0.121 A 
ATOM     39  C   UNL     1      31.286  -1.933  49.251  1.00  0.00     0.021 A 
ATOM     40  N   UNL     1      33.686  -2.045  49.011  1.00  0.00    -0.264 NA
ATOM     41  C   UNL     1      32.447  -2.403  48.638  1.00  0.00     0.111 A 
ENDBRANCH  34  36
ENDBRANCH  28  30
ENDBRANCH   6  28
TORSDOF 7
ENDMDL
MODEL 3
REMARK VINA RESULT:   -11.685      1.572      3.568
REMARK INTER + INTRA:         -15.358
REMARK INTER:                 -13.773
REMARK INTRA:                  -1.585
REMARK CONF_INDEPENDENT:        2.088
REMARK UNBOUND:                -1.585
REMARK SMILES Cc1cn(-c2cc(NC(=O)c3ccc(C)c(Nc4nccc(-c5cccnc5)n4)c3)cc(C(F)(F)F)c2)cn1
REMARK SMILES IDX 11 1 12 2 13 3 14 4 15 5 16 6 30 7 9 8 10 9 8 10 7 12 6 13
REMARK SMILES IDX 31 14 5 15 32 16 37 17 4 18 3 19 38 20 2 21 39 22 1 23 33 24
REMARK SMILES IDX 34 25 35 26 36 27 17 28 18 30 19 31 29 32 20 33 22 34 21 35
REMARK SMILES IDX 23 36 24 37 28 38 25 39 27 40 26 41
REMARK H PARENT 8 11 17 29
ROOT
ATOM      1  C   UNL     1      27.637   1.697  52.824  1.00  0.00     0.042 A 
ATOM      2  C   UNL     1      27.379   1.115  54.074  1.00  0.00     0.014 A 
ATOM      3  C   UNL     1      28.100   0.008  54.524  1.00  0.00     0.006 A 
ATOM      4  C   UNL     1      29.043  -0.610  53.718  1.00  0.00    -0.027 A 
ATOM      5  C   UNL     1      29.816  -1.822  54.219  1.00  0.00     0.046 C 
ATOM      6  C   UNL     1      29.231  -0.100  52.435  1.00  0.00     0.045 A 
ATOM      7  C   UNL     1      28.515   1.027  52.012  1.00  0.00     0.040 A 
ENDROOT
BRANCH   1   8
ATOM      8  C   UNL     1      26.842   2.783  52.218  1.00  0.00     0.255 C 
ATOM      9  O   UNL     1      26.958   2.907  51.023  1.00  0.00    -0.269 OA
ATOM     10  N   UNL     1      25.904   3.337  53.002  1.00  0.00    -0.322 N 
ATOM     11  H   UNL     1      25.857   3.011  53.977  1.00  0.00     0.170 HD
BRANCH  10  12
ATOM     12  C   UNL     1      24.991   4.311  52.617  1.00  0.00     0.044 A 
ATOM     13  C   UNL     1      24.265   5.050  53.584  1.00  0.00     0.052 A 
ATOM     14  C   UNL     1      24.678   4.503  51.254  1.00  0.00     0.039 A 
ATOM     15  C   UNL     1      23.352   6.038  53.208  1.00  0.00     0.049 A 
ATOM     16  C   UNL     1      23.763   5.526  50.872  1.00  0.00     0.060 A 
ATOM     17  C   UNL     1      23.092   6.252  51.858  1.00  0.00     0.039 A 
BRANCH  15  18
ATOM     18  N   UNL     1      22.660   6.804  54.158  1.00  0.00    -0.306 N 
ATOM     19  C   UNL     1      21.561   6.447  54.938  1.00  0.00     0.116 A 
ATOM     20  C   UNL     1      22.862   8.094  54.449  1.00  0.00     0.204 A 
ATOM     21  C   UNL     1      21.177   7.531  55.647  1.00  0.00     0.056 A 
ATOM     22  N   UNL     1      22.023   8.542  55.351  1.00  0.00    -0.242 NA
ATOM     23  C   UNL     1      20.048   7.636  56.644  1.00  0.00     0.068 C 
ENDBRANCH  15  18
BRANCH  16  24
ATOM     24  C   UNL     1      23.495   5.748  49.418  1.00  0.00     0.416 C 
ATOM     25  F   UNL     1      24.348   6.591  48.804  1.00  0.00    -0.166 F 
ATOM     26  F   UNL     1      23.668   4.628  48.725  1.00  0.00    -0.166 F 
ATOM     27  F   UNL     1      22.288   6.308  49.199  1.00  0.00    -0.166 F 
ENDBRANCH  16  24
ENDBRANCH  10  12
ENDBRANCH   1   8
BRANCH   6  28
ATOM     28  N   UNL     1      30.287  -0.604  51.665  1.00  0.00    -0.324 N 
ATOM     29  H   UNL     1      30.107  -1.300  50.929  1.00  0.00     0.170 HD
BRANCH  28  30
ATOM     30  C   UNL     1      31.587  -0.154  51.905  1.00  0.00     0.227 A 
ATOM     31  N   UNL     1      32.726  -0.575  51.370  1.00  0.00    -0.221 NA
ATOM     32  N   UNL     1      31.523   0.785  52.884  1.00  0.00    -0.213 NA
ATOM     33  C   UNL     1      33.856   0.007  51.815  1.00  0.00     0.117 A 
ATOM     34  C   UNL     1      32.675   1.312  53.316  1.00  0.00     0.077 A 
ATOM     35  C   UNL     1      33.859   0.929  52.790  1.00  0.00     0.049 A 
BRANCH  34  36
ATOM     36  C   UNL     1      32.549   2.360  54.363  1.00  0.00     0.019 A 
ATOM     37  C   UNL     1      31.458   2.390  55.246  1.00  0.00     0.013 A 
ATOM     38  C   UNL     1      33.525   3.369  54.486  1.00  0.00     0.121 A 
ATOM     39  C   UNL     1      31.381   3.408  56.188  1.00  0.00     0.021 A 
ATOM     40  N   UNL     1      33.451   4.357  55.386  1.00  0.00    -0.264 NA
ATOM     41  C   UNL     1      32.411   4.347  56.235  1.00  0.00     0.111 A 
ENDBRANCH  34  36
ENDBRANCH  28  30
ENDBRANCH   6  28
TORSDOF 7
ENDMDL
MODEL 4
REMARK VINA RESULT:   -11.523      4.166     11.217
REMARK INTER + INTRA:         -14.786
REMARK INTER:                 -13.611
REMARK INTRA:                  -1.175
REMARK CONF_INDEPENDENT:        2.088
REMARK UNBOUND:                -1.175
REMARK SMILES Cc1cn(-c2cc(NC(=O)c3ccc(C)c(Nc4nccc(-c5cccnc5)n4)c3)cc(C(F)(F)F)c2)cn1
REMARK SMILES IDX 11 1 12 2 13 3 14 4 15 5 16 6 30 7 9 8 10 9 8 10 7 12 6 13
REMARK SMILES IDX 31 14 5 15 32 16 37 17 4 18 3 19 38 20 2 21 39 22 1 23 33 24
REMARK SMILES IDX 34 25 35 26 36 27 17 28 18 30 19 31 29 32 20 33 22 34 21 35
REMARK SMILES IDX 23 36 24 37 28 38 25 39 27 40 26 41
REMARK H PARENT 8 11 17 29
ROOT
ATOM      1  C   UNL     1      25.869   3.877  52.070  1.00  0.00     0.042 A 
ATOM      2  C   UNL     1      25.252   4.362  50.907  1.00  0.00     0.014 A 
ATOM      3  C   UNL     1      24.120   5.175  50.969  1.00  0.00     0.006 A 
ATOM      4  C   UNL     1      23.511   5.468  52.180  1.00  0.00    -0.027 A 
ATOM      5  C   UNL     1      22.272   6.350  52.232  1.00  0.00     0.046 C 
ATOM      6  C   UNL     1      24.059   4.904  53.331  1.00  0.00     0.045 A 
ATOM      7  C   UNL     1      25.210   4.111  53.249  1.00  0.00     0.040 A 
ENDROOT
BRANCH   1   8
ATOM      8  C   UNL     1      26.987   2.913  52.093  1.00  0.00     0.255 C 
ATOM      9  O   UNL     1      27.719   2.946  51.133  1.00  0.00    -0.269 OA
ATOM     10  N   UNL     1      27.213   2.297  53.262  1.00  0.00    -0.322 N 
ATOM     11  H   UNL     1      26.553   2.492  54.029  1.00  0.00     0.170 HD
BRANCH  10  12
ATOM     12  C   UNL     1      28.255   1.420  53.534  1.00  0.00     0.044 A 
ATOM     13  C   UNL     1      29.557   1.658  53.028  1.00  0.00     0.052 A 
ATOM     14  C   UNL     1      28.014   0.209  54.220  1.00  0.00     0.039 A 
ATOM     15  C   UNL     1      30.614   0.786  53.305  1.00  0.00     0.049 A 
ATOM     16  C   UNL     1      29.097  -0.666  54.520  1.00  0.00     0.060 A 
ATOM     17  C   UNL     1      30.371  -0.378  54.026  1.00  0.00     0.039 A 
BRANCH  15  18
ATOM     18  N   UNL     1      31.915   1.035  52.843  1.00  0.00    -0.306 N 
ATOM     19  C   UNL     1      32.528   0.595  51.672  1.00  0.00     0.116 A 
ATOM     20  C   UNL     1      32.886   1.687  53.495  1.00  0.00     0.204 A 
ATOM     21  C   UNL     1      33.815   1.008  51.687  1.00  0.00     0.056 A 
ATOM     22  N   UNL     1      34.009   1.717  52.821  1.00  0.00    -0.242 NA
ATOM     23  C   UNL     1      34.872   0.792  50.631  1.00  0.00     0.068 C 
ENDBRANCH  15  18
BRANCH  16  24
ATOM     24  C   UNL     1      28.823  -1.911  55.299  1.00  0.00     0.416 C 
ATOM     25  F   UNL     1      27.944  -2.759  54.728  1.00  0.00    -0.166 F 
ATOM     26  F   UNL     1      29.912  -2.666  55.391  1.00  0.00    -0.166 F 
ATOM     27  F   UNL     1      28.272  -1.652  56.503  1.00  0.00    -0.166 F 
ENDBRANCH  16  24
ENDBRANCH  10  12
ENDBRANCH   1   8
BRANCH   6  28
ATOM     28  N   UNL     1      23.563   5.314  54.575  1.00  0.00    -0.324 N 
ATOM     29  H   UNL     1      22.867   4.740  55.072  1.00  0.00     0.170 HD
BRANCH  28  30
ATOM     30  C   UNL     1      24.019   6.509  55.136  1.00  0.00     0.227 A 
ATOM     31  N   UNL     1      24.029   7.726  54.609  1.00  0.00    -0.221 NA
ATOM     32  N   UNL     1      24.556   6.215  56.349  1.00  0.00    -0.213 NA
ATOM     33  C   UNL     1      24.572   8.706  55.356  1.00  0.00     0.117 A 
ATOM     34  C   UNL     1      25.113   7.216  57.041  1.00  0.00     0.077 A 
ATOM     35  C   UNL     1      25.132   8.475  56.554  1.00  0.00     0.049 A 
BRANCH  34  36
ATOM     36  C   UNL     1      25.655   6.850  58.376  1.00  0.00     0.019 A 
ATOM     37  C   UNL     1      24.811   6.478  59.435  1.00  0.00     0.013 A 
ATOM     38  C   UNL     1      27.042   6.882  58.618  1.00  0.00     0.121 A 
ATOM     39  C   UNL     1      25.372   6.171  60.668  1.00  0.00     0.021 A 
ATOM     40  N   UNL     1      27.588   6.594  59.807  1.00  0.00    -0.264 NA
ATOM     41  C   UNL     1      26.760   6.217  60.795  1.00  0.00     0.111 A 
ENDBRANCH  34  36
ENDBRANCH  28  30
ENDBRANCH   6  28
TORSDOF 7
ENDMDL
MODEL 5
REMARK VINA RESULT:   -11.511      2.142      3.187
REMARK INTER + INTRA:         -14.919
REMARK INTER:                 -13.599
REMARK INTRA:                  -1.320
REMARK CONF_INDEPENDENT:        2.088
REMARK UNBOUND:                -1.320
REMARK SMILES Cc1cn(-c2cc(NC(=O)c3ccc(C)c(Nc4nccc(-c5cccnc5)n4)c3)cc(C(F)(F)F)c2)cn1
REMARK SMILES IDX 11 1 12 2 13 3 14 4 15 5 16 6 30 7 9 8 10 9 8 10 7 12 6 13
REMARK SMILES IDX 31 14 5 15 32 16 37 17 4 18 3 19 38 20 2 21 39 22 1 23 33 24
REMARK SMILES IDX 34 25 35 26 36 27 17 28 18 30 19 31 29 32 20 33 22 34 21 35
REMARK SMILES IDX 23 36 24 37 28 38 25 39 27 40 26 41
REMARK H PARENT 8 11 17 29
ROOT
ATOM      1  C   UNL     1      26.997   2.403  52.399  1.00  0.00     0.042 A 
ATOM      2  C   UNL     1      27.150   1.031  52.151  1.00  0.00     0.014 A 
ATOM      3  C   UNL     1      27.924   0.223  52.985  1.00  0.00     0.006 A 
ATOM      4  C   UNL     1      28.640   0.760  54.042  1.00  0.00    -0.027 A 
ATOM      5  C   UNL     1      29.487  -0.132  54.939  1.00  0.00     0.046 C 
ATOM      6  C   UNL     1      28.575   2.140  54.232  1.00  0.00     0.045 A 
ATOM      7  C   UNL     1      27.772   2.929  53.399  1.00  0.00     0.040 A 
ENDROOT
BRANCH   1   8
ATOM      8  C   UNL     1      26.305   3.351  51.503  1.00  0.00     0.255 C 
ATOM      9  O   UNL     1      26.547   3.224  50.328  1.00  0.00    -0.269 OA
ATOM     10  N   UNL     1      25.311   4.065  52.052  1.00  0.00    -0.322 N 
ATOM     11  H   UNL     1      25.153   3.947  53.063  1.00  0.00     0.170 HD
BRANCH  10  12
ATOM     12  C   UNL     1      24.475   4.949  51.381  1.00  0.00     0.044 A 
ATOM     13  C   UNL     1      23.836   6.010  52.070  1.00  0.00     0.052 A 
ATOM     14  C   UNL     1      24.148   4.739  50.024  1.00  0.00     0.039 A 
ATOM     15  C   UNL     1      23.002   6.911  51.402  1.00  0.00     0.049 A 
ATOM     16  C   UNL     1      23.316   5.670  49.340  1.00  0.00     0.060 A 
ATOM     17  C   UNL     1      22.730   6.720  50.051  1.00  0.00     0.039 A 
BRANCH  15  18
ATOM     18  N   UNL     1      22.398   7.989  52.066  1.00  0.00    -0.306 N 
ATOM     19  C   UNL     1      21.577   7.975  53.193  1.00  0.00     0.116 A 
ATOM     20  C   UNL     1      22.415   9.273  51.690  1.00  0.00     0.204 A 
ATOM     21  C   UNL     1      21.158   9.238  53.425  1.00  0.00     0.056 A 
ATOM     22  N   UNL     1      21.719  10.040  52.493  1.00  0.00    -0.242 NA
ATOM     23  C   UNL     1      20.269   9.731  54.541  1.00  0.00     0.068 C 
ENDBRANCH  15  18
BRANCH  16  24
ATOM     24  C   UNL     1      23.035   5.457  47.888  1.00  0.00     0.416 C 
ATOM     25  F   UNL     1      21.765   5.705  47.511  1.00  0.00    -0.166 F 
ATOM     26  F   UNL     1      23.717   6.315  47.139  1.00  0.00    -0.166 F 
ATOM     27  F   UNL     1      23.230   4.176  47.511  1.00  0.00    -0.166 F 
ENDBRANCH  16  24
ENDBRANCH  10  12
ENDBRANCH   1   8
BRANCH   6  28
ATOM     28  N   UNL     1      29.156   2.682  55.386  1.00  0.00    -0.324 N 
ATOM     29  H   UNL     1      28.579   2.871  56.218  1.00  0.00     0.170 HD
BRANCH  28  30
ATOM     30  C   UNL     1      30.524   2.964  55.399  1.00  0.00     0.227 A 
ATOM     31  N   UNL     1      31.178   3.880  56.101  1.00  0.00    -0.221 NA
ATOM     32  N   UNL     1      31.117   2.167  54.474  1.00  0.00    -0.213 NA
ATOM     33  C   UNL     1      32.505   3.972  55.890  1.00  0.00     0.117 A 
ATOM     34  C   UNL     1      32.432   2.317  54.276  1.00  0.00     0.077 A 
ATOM     35  C   UNL     1      33.145   3.223  54.979  1.00  0.00     0.049 A 
BRANCH  34  36
ATOM     36  C   UNL     1      33.041   1.398  53.279  1.00  0.00     0.019 A 
ATOM     37  C   UNL     1      32.279   0.821  52.249  1.00  0.00     0.013 A 
ATOM     38  C   UNL     1      34.408   1.066  53.352  1.00  0.00     0.121 A 
ATOM     39  C   UNL     1      32.896  -0.051  51.361  1.00  0.00     0.021 A 
ATOM     40  N   UNL     1      35.006   0.220  52.504  1.00  0.00    -0.264 NA
ATOM     41  C   UNL     1      34.260  -0.296  51.513  1.00  0.00     0.111 A 
ENDBRANCH  34  36
ENDBRANCH  28  30
ENDBRANCH   6  28
TORSDOF 7
ENDMDL
MODEL 6
REMARK VINA RESULT:   -11.414      3.698     11.682
REMARK INTER + INTRA:         -14.621
REMARK INTER:                 -13.502
REMARK INTRA:                  -1.119
REMARK CONF_INDEPENDENT:        2.088
REMARK UNBOUND:                -1.119
REMARK SMILES Cc1cn(-c2cc(NC(=O)c3ccc(C)c(Nc4nccc(-c5cccnc5)n4)c3)cc(C(F)(F)F)c2)cn1
REMARK SMILES IDX 11 1 12 2 13 3 14 4 15 5 16 6 30 7 9 8 10 9 8 10 7 12 6 13
REMARK SMILES IDX 31 14 5 15 32 16 37 17 4 18 3 19 38 20 2 21 39 22 1 23 33 24
REMARK SMILES IDX 34 25 35 26 36 27 17 28 18 30 19 31 29 32 20 33 22 34 21 35
REMARK SMILES IDX 23 36 24 37 28 38 25 39 27 40 26 41
REMARK H PARENT 8 11 17 29
ROOT
ATOM      1  C   UNL     1      25.851   3.815  51.747  1.00  0.00     0.042 A 
ATOM      2  C   UNL     1      25.215   4.155  50.543  1.00  0.00     0.014 A 
ATOM      3  C   UNL     1      24.077   4.963  50.525  1.00  0.00     0.006 A 
ATOM      4  C   UNL     1      23.482   5.392  51.700  1.00  0.00    -0.027 A 
ATOM      5  C   UNL     1      22.236   6.266  51.665  1.00  0.00     0.046 C 
ATOM      6  C   UNL     1      24.048   4.971  52.902  1.00  0.00     0.045 A 
ATOM      7  C   UNL     1      25.205   4.181  52.899  1.00  0.00     0.040 A 
ENDROOT
BRANCH   1   8
ATOM      8  C   UNL     1      26.977   2.868  51.868  1.00  0.00     0.255 C 
ATOM      9  O   UNL     1      27.773   2.891  50.962  1.00  0.00    -0.269 OA
ATOM     10  N   UNL     1      27.129   2.280  53.064  1.00  0.00    -0.322 N 
ATOM     11  H   UNL     1      26.415   2.481  53.779  1.00  0.00     0.170 HD
BRANCH  10  12
ATOM     12  C   UNL     1      28.161   1.423  53.427  1.00  0.00     0.044 A 
ATOM     13  C   UNL     1      29.497   1.689  53.037  1.00  0.00     0.052 A 
ATOM     14  C   UNL     1      27.885   0.207  54.089  1.00  0.00     0.039 A 
ATOM     15  C   UNL     1      30.543   0.839  53.406  1.00  0.00     0.049 A 
ATOM     16  C   UNL     1      28.955  -0.647  54.482  1.00  0.00     0.060 A 
ATOM     17  C   UNL     1      30.262  -0.331  54.103  1.00  0.00     0.039 A 
BRANCH  15  18
ATOM     18  N   UNL     1      31.875   1.115  53.061  1.00  0.00    -0.306 N 
ATOM     19  C   UNL     1      32.629   0.607  52.005  1.00  0.00     0.116 A 
ATOM     20  C   UNL     1      32.740   1.872  53.747  1.00  0.00     0.204 A 
ATOM     21  C   UNL     1      33.887   1.087  52.116  1.00  0.00     0.056 A 
ATOM     22  N   UNL     1      33.927   1.902  53.193  1.00  0.00    -0.242 NA
ATOM     23  C   UNL     1      35.061   0.837  51.200  1.00  0.00     0.068 C 
ENDBRANCH  15  18
BRANCH  16  24
ATOM     24  C   UNL     1      28.639  -1.899  55.235  1.00  0.00     0.416 C 
ATOM     25  F   UNL     1      27.605  -2.612  54.746  1.00  0.00    -0.166 F 
ATOM     26  F   UNL     1      29.638  -2.770  55.151  1.00  0.00    -0.166 F 
ATOM     27  F   UNL     1      28.275  -1.653  56.510  1.00  0.00    -0.166 F 
ENDBRANCH  16  24
ENDBRANCH  10  12
ENDBRANCH   1   8
BRANCH   6  28
ATOM     28  N   UNL     1      23.564   5.521  54.096  1.00  0.00    -0.324 N 
ATOM     29  H   UNL     1      22.557   5.494  54.309  1.00  0.00     0.170 HD
BRANCH  28  30
ATOM     30  C   UNL     1      24.458   6.107  54.994  1.00  0.00     0.227 A 
ATOM     31  N   UNL     1      25.778   6.209  54.908  1.00  0.00    -0.221 NA
ATOM     32  N   UNL     1      23.745   6.518  56.075  1.00  0.00    -0.213 NA
ATOM     33  C   UNL     1      26.410   6.788  55.947  1.00  0.00     0.117 A 
ATOM     34  C   UNL     1      24.421   7.059  57.096  1.00  0.00     0.077 A 
ATOM     35  C   UNL     1      25.763   7.201  57.048  1.00  0.00     0.049 A 
BRANCH  34  36
ATOM     36  C   UNL     1      23.593   7.524  58.239  1.00  0.00     0.019 A 
ATOM     37  C   UNL     1      24.055   8.505  59.131  1.00  0.00     0.013 A 
ATOM     38  C   UNL     1      22.315   6.976  58.467  1.00  0.00     0.121 A 
ATOM     39  C   UNL     1      23.248   8.883  60.197  1.00  0.00     0.021 A 
ATOM     40  N   UNL     1      21.536   7.330  59.497  1.00  0.00    -0.264 NA
ATOM     41  C   UNL     1      21.993   8.289  60.320  1.00  0.00     0.111 A 
ENDBRANCH  34  36
ENDBRANCH  28  30
ENDBRANCH   6  28
TORSDOF 7
ENDMDL
MODEL 7
REMARK VINA RESULT:   -11.150      3.626     12.288
REMARK INTER + INTRA:         -14.409
REMARK INTER:                 -13.238
REMARK INTRA:                  -1.171
REMARK CONF_INDEPENDENT:        2.088
REMARK UNBOUND:                -1.171
REMARK SMILES Cc1cn(-c2cc(NC(=O)c3ccc(C)c(Nc4nccc(-c5cccnc5)n4)c3)cc(C(F)(F)F)c2)cn1
REMARK SMILES IDX 11 1 12 2 13 3 14 4 15 5 16 6 30 7 9 8 10 9 8 10 7 12 6 13
REMARK SMILES IDX 31 14 5 15 32 16 37 17 4 18 3 19 38 20 2 21 39 22 1 23 33 24
REMARK SMILES IDX 34 25 35 26 36 27 17 28 18 30 19 31 29 32 20 33 22 34 21 35
REMARK SMILES IDX 23 36 24 37 28 38 25 39 27 40 26 41
REMARK H PARENT 8 11 17 29
ROOT
ATOM      1  C   UNL     1      25.741   3.748  51.903  1.00  0.00     0.042 A 
ATOM      2  C   UNL     1      25.278   4.340  50.719  1.00  0.00     0.014 A 
ATOM      3  C   UNL     1      24.110   5.103  50.696  1.00  0.00     0.006 A 
ATOM      4  C   UNL     1      23.317   5.237  51.824  1.00  0.00    -0.027 A 
ATOM      5  C   UNL     1      22.041   6.066  51.783  1.00  0.00     0.046 C 
ATOM      6  C   UNL     1      23.717   4.565  52.978  1.00  0.00     0.045 A 
ATOM      7  C   UNL     1      24.906   3.825  52.987  1.00  0.00     0.040 A 
ENDROOT
BRANCH   1   8
ATOM      8  C   UNL     1      26.890   2.825  51.992  1.00  0.00     0.255 C 
ATOM      9  O   UNL     1      27.647   2.848  51.052  1.00  0.00    -0.269 OA
ATOM     10  N   UNL     1      27.104   2.260  53.190  1.00  0.00    -0.322 N 
ATOM     11  H   UNL     1      26.417   2.460  53.930  1.00  0.00     0.170 HD
BRANCH  10  12
ATOM     12  C   UNL     1      28.167   1.430  53.522  1.00  0.00     0.044 A 
ATOM     13  C   UNL     1      29.485   1.732  53.099  1.00  0.00     0.052 A 
ATOM     14  C   UNL     1      27.941   0.205  54.186  1.00  0.00     0.039 A 
ATOM     15  C   UNL     1      30.563   0.909  53.437  1.00  0.00     0.049 A 
ATOM     16  C   UNL     1      29.043  -0.622  54.548  1.00  0.00     0.060 A 
ATOM     17  C   UNL     1      30.330  -0.271  54.137  1.00  0.00     0.039 A 
BRANCH  15  18
ATOM     18  N   UNL     1      31.877   1.221  53.058  1.00  0.00    -0.306 N 
ATOM     19  C   UNL     1      32.637   0.694  52.016  1.00  0.00     0.116 A 
ATOM     20  C   UNL     1      32.720   2.043  53.694  1.00  0.00     0.204 A 
ATOM     21  C   UNL     1      33.875   1.229  52.084  1.00  0.00     0.056 A 
ATOM     22  N   UNL     1      33.897   2.095  53.121  1.00  0.00    -0.242 NA
ATOM     23  C   UNL     1      35.046   0.983  51.162  1.00  0.00     0.068 C 
ENDBRANCH  15  18
BRANCH  16  24
ATOM     24  C   UNL     1      28.780  -1.884  55.304  1.00  0.00     0.416 C 
ATOM     25  F   UNL     1      27.910  -2.729  54.715  1.00  0.00    -0.166 F 
ATOM     26  F   UNL     1      29.876  -2.629  55.383  1.00  0.00    -0.166 F 
ATOM     27  F   UNL     1      28.224  -1.653  56.511  1.00  0.00    -0.166 F 
ENDBRANCH  16  24
ENDBRANCH  10  12
ENDBRANCH   1   8
BRANCH   6  28
ATOM     28  N   UNL     1      23.024   4.816  54.170  1.00  0.00    -0.324 N 
ATOM     29  H   UNL     1      22.433   4.085  54.590  1.00  0.00     0.170 HD
BRANCH  28  30
ATOM     30  C   UNL     1      23.141   6.065  54.783  1.00  0.00     0.227 A 
ATOM     31  N   UNL     1      24.133   6.536  55.528  1.00  0.00    -0.221 NA
ATOM     32  N   UNL     1      21.988   6.745  54.557  1.00  0.00    -0.213 NA
ATOM     33  C   UNL     1      23.971   7.771  56.040  1.00  0.00     0.117 A 
ATOM     34  C   UNL     1      21.860   7.955  55.112  1.00  0.00     0.077 A 
ATOM     35  C   UNL     1      22.848   8.486  55.864  1.00  0.00     0.049 A 
BRANCH  34  36
ATOM     36  C   UNL     1      20.595   8.672  54.806  1.00  0.00     0.019 A 
ATOM     37  C   UNL     1      19.443   8.499  55.590  1.00  0.00     0.013 A 
ATOM     38  C   UNL     1      20.515   9.542  53.701  1.00  0.00     0.121 A 
ATOM     39  C   UNL     1      18.281   9.176  55.241  1.00  0.00     0.021 A 
ATOM     40  N   UNL     1      19.396  10.191  53.355  1.00  0.00    -0.264 NA
ATOM     41  C   UNL     1      18.317  10.027  54.137  1.00  0.00     0.111 A 
ENDBRANCH  34  36
ENDBRANCH  28  30
ENDBRANCH   6  28
TORSDOF 7
ENDMDL
MODEL 8
REMARK VINA RESULT:   -11.105      1.727      2.612
REMARK INTER + INTRA:         -14.400
REMARK INTER:                 -13.193
REMARK INTRA:                  -1.207
REMARK CONF_INDEPENDENT:        2.088
REMARK UNBOUND:                -1.207
REMARK SMILES Cc1cn(-c2cc(NC(=O)c3ccc(C)c(Nc4nccc(-c5cccnc5)n4)c3)cc(C(F)(F)F)c2)cn1
REMARK SMILES IDX 11 1 12 2 13 3 14 4 15 5 16 6 30 7 9 8 10 9 8 10 7 12 6 13
REMARK SMILES IDX 31 14 5 15 32 16 37 17 4 18 3 19 38 20 2 21 39 22 1 23 33 24
REMARK SMILES IDX 34 25 35 26 36 27 17 28 18 30 19 31 29 32 20 33 22 34 21 35
REMARK SMILES IDX 23 36 24 37 28 38 25 39 27 40 26 41
REMARK H PARENT 8 11 17 29
ROOT
ATOM      1  C   UNL     1      27.055   2.354  52.470  1.00  0.00     0.042 A 
ATOM      2  C   UNL     1      27.170   1.232  51.636  1.00  0.00     0.014 A 
ATOM      3  C   UNL     1      28.096   0.222  51.900  1.00  0.00     0.006 A 
ATOM      4  C   UNL     1      28.995   0.328  52.949  1.00  0.00    -0.027 A 
ATOM      5  C   UNL     1      30.005  -0.778  53.221  1.00  0.00     0.046 C 
ATOM      6  C   UNL     1      28.955   1.489  53.720  1.00  0.00     0.045 A 
ATOM      7  C   UNL     1      28.001   2.479  53.454  1.00  0.00     0.040 A 
ENDROOT
BRANCH   1   8
ATOM      8  C   UNL     1      26.196   3.523  52.197  1.00  0.00     0.255 C 
ATOM      9  O   UNL     1      26.112   3.845  51.037  1.00  0.00    -0.269 OA
ATOM     10  N   UNL     1      25.419   3.936  53.209  1.00  0.00    -0.322 N 
ATOM     11  H   UNL     1      25.529   3.451  54.111  1.00  0.00     0.170 HD
BRANCH  10  12
ATOM     12  C   UNL     1      24.479   4.957  53.152  1.00  0.00     0.044 A 
ATOM     13  C   UNL     1      23.743   5.333  54.303  1.00  0.00     0.052 A 
ATOM     14  C   UNL     1      24.149   5.562  51.920  1.00  0.00     0.039 A 
ATOM     15  C   UNL     1      22.802   6.366  54.258  1.00  0.00     0.049 A 
ATOM     16  C   UNL     1      23.207   6.629  51.880  1.00  0.00     0.060 A 
ATOM     17  C   UNL     1      22.526   6.988  53.045  1.00  0.00     0.039 A 
BRANCH  15  18
ATOM     18  N   UNL     1      22.099   6.774  55.402  1.00  0.00    -0.306 N 
ATOM     19  C   UNL     1      22.569   6.953  56.702  1.00  0.00     0.116 A 
ATOM     20  C   UNL     1      20.782   6.993  55.497  1.00  0.00     0.204 A 
ATOM     21  C   UNL     1      21.519   7.269  57.490  1.00  0.00     0.056 A 
ATOM     22  N   UNL     1      20.415   7.321  56.712  1.00  0.00    -0.242 NA
ATOM     23  C   UNL     1      21.526   7.574  58.969  1.00  0.00     0.068 C 
ENDBRANCH  15  18
BRANCH  16  24
ATOM     24  C   UNL     1      22.921   7.291  50.571  1.00  0.00     0.416 C 
ATOM     25  F   UNL     1      23.966   7.347  49.721  1.00  0.00    -0.166 F 
ATOM     26  F   UNL     1      22.033   6.597  49.869  1.00  0.00    -0.166 F 
ATOM     27  F   UNL     1      22.567   8.584  50.717  1.00  0.00    -0.166 F 
ENDBRANCH  16  24
ENDBRANCH  10  12
ENDBRANCH   1   8
BRANCH   6  28
ATOM     28  N   UNL     1      29.738   1.547  54.880  1.00  0.00    -0.324 N 
ATOM     29  H   UNL     1      29.364   1.208  55.777  1.00  0.00     0.170 HD
BRANCH  28  30
ATOM     30  C   UNL     1      31.032   2.069  54.809  1.00  0.00     0.227 A 
ATOM     31  N   UNL     1      31.568   3.061  55.509  1.00  0.00    -0.221 NA
ATOM     32  N   UNL     1      31.681   1.427  53.804  1.00  0.00    -0.213 NA
ATOM     33  C   UNL     1      32.837   3.397  55.207  1.00  0.00     0.117 A 
ATOM     34  C   UNL     1      32.929   1.817  53.520  1.00  0.00     0.077 A 
ATOM     35  C   UNL     1      33.525   2.809  54.215  1.00  0.00     0.049 A 
BRANCH  34  36
ATOM     36  C   UNL     1      33.608   1.060  52.436  1.00  0.00     0.019 A 
ATOM     37  C   UNL     1      33.452  -0.329  52.300  1.00  0.00     0.013 A 
ATOM     38  C   UNL     1      34.446   1.722  51.518  1.00  0.00     0.121 A 
ATOM     39  C   UNL     1      34.131  -0.988  51.283  1.00  0.00     0.021 A 
ATOM     40  N   UNL     1      35.109   1.091  50.541  1.00  0.00    -0.264 NA
ATOM     41  C   UNL     1      34.922  -0.233  50.418  1.00  0.00     0.111 A 
ENDBRANCH  34  36
ENDBRANCH  28  30
ENDBRANCH   6  28
TORSDOF 7
ENDMDL
MODEL 9
REMARK VINA RESULT:   -10.923      3.885     11.728
REMARK INTER + INTRA:         -14.065
REMARK INTER:                 -13.011
REMARK INTRA:                  -1.054
REMARK CONF_INDEPENDENT:        2.088
REMARK UNBOUND:                -1.054
REMARK SMILES Cc1cn(-c2cc(NC(=O)c3ccc(C)c(Nc4nccc(-c5cccnc5)n4)c3)cc(C(F)(F)F)c2)cn1
REMARK SMILES IDX 11 1 12 2 13 3 14 4 15 5 16 6 30 7 9 8 10 9 8 10 7 12 6 13
REMARK SMILES IDX 31 14 5 15 32 16 37 17 4 18 3 19 38 20 2 21 39 22 1 23 33 24
REMARK SMILES IDX 34 25 35 26 36 27 17 28 18 30 19 31 29 32 20 33 22 34 21 35
REMARK SMILES IDX 23 36 24 37 28 38 25 39 27 40 26 41
REMARK H PARENT 8 11 17 29
ROOT
ATOM      1  C   UNL     1      25.739   3.575  51.880  1.00  0.00     0.042 A 
ATOM      2  C   UNL     1      24.850   3.344  50.820  1.00  0.00     0.014 A 
ATOM      3  C   UNL     1      23.512   3.737  50.894  1.00  0.00     0.006 A 
ATOM      4  C   UNL     1      22.991   4.295  52.050  1.00  0.00    -0.027 A 
ATOM      5  C   UNL     1      21.529   4.712  52.120  1.00  0.00     0.046 C 
ATOM      6  C   UNL     1      23.845   4.433  53.143  1.00  0.00     0.045 A 
ATOM      7  C   UNL     1      25.190   4.056  53.040  1.00  0.00     0.040 A 
ENDROOT
BRANCH   1   8
ATOM      8  C   UNL     1      27.130   3.083  51.937  1.00  0.00     0.255 C 
ATOM      9  O   UNL     1      27.725   3.090  50.887  1.00  0.00    -0.269 OA
ATOM     10  N   UNL     1      27.652   2.925  53.162  1.00  0.00    -0.322 N 
ATOM     11  H   UNL     1      27.026   3.094  53.962  1.00  0.00     0.170 HD
BRANCH  10  12
ATOM     12  C   UNL     1      28.959   2.554  53.451  1.00  0.00     0.044 A 
ATOM     13  C   UNL     1      29.621   1.565  52.682  1.00  0.00     0.052 A 
ATOM     14  C   UNL     1      29.616   3.066  54.591  1.00  0.00     0.039 A 
ATOM     15  C   UNL     1      30.939   1.192  52.958  1.00  0.00     0.049 A 
ATOM     16  C   UNL     1      30.966   2.702  54.857  1.00  0.00     0.060 A 
ATOM     17  C   UNL     1      31.592   1.745  54.055  1.00  0.00     0.039 A 
BRANCH  15  18
ATOM     18  N   UNL     1      31.617   0.244  52.177  1.00  0.00    -0.306 N 
ATOM     19  C   UNL     1      32.944   0.248  51.752  1.00  0.00     0.116 A 
ATOM     20  C   UNL     1      31.089  -0.837  51.590  1.00  0.00     0.204 A 
ATOM     21  C   UNL     1      33.134  -0.822  50.949  1.00  0.00     0.056 A 
ATOM     22  N   UNL     1      31.969  -1.505  50.887  1.00  0.00    -0.242 NA
ATOM     23  C   UNL     1      34.407  -1.255  50.263  1.00  0.00     0.068 C 
ENDBRANCH  15  18
BRANCH  16  24
ATOM     24  C   UNL     1      31.657   3.306  56.037  1.00  0.00     0.416 C 
ATOM     25  F   UNL     1      31.055   4.396  56.553  1.00  0.00    -0.166 F 
ATOM     26  F   UNL     1      31.651   2.473  57.071  1.00  0.00    -0.166 F 
ATOM     27  F   UNL     1      32.896   3.745  55.736  1.00  0.00    -0.166 F 
ENDBRANCH  16  24
ENDBRANCH  10  12
ENDBRANCH   1   8
BRANCH   6  28
ATOM     28  N   UNL     1      23.387   5.140  54.262  1.00  0.00    -0.324 N 
ATOM     29  H   UNL     1      22.396   5.091  54.538  1.00  0.00     0.170 HD
BRANCH  28  30
ATOM     30  C   UNL     1      24.285   5.914  55.000  1.00  0.00     0.227 A 
ATOM     31  N   UNL     1      25.577   6.124  54.783  1.00  0.00    -0.221 NA
ATOM     32  N   UNL     1      23.622   6.391  56.086  1.00  0.00    -0.213 NA
ATOM     33  C   UNL     1      26.227   6.885  55.684  1.00  0.00     0.117 A 
ATOM     34  C   UNL     1      24.318   7.115  56.970  1.00  0.00     0.077 A 
ATOM     35  C   UNL     1      25.630   7.372  56.784  1.00  0.00     0.049 A 
BRANCH  34  36
ATOM     36  C   UNL     1      23.540   7.643  58.121  1.00  0.00     0.019 A 
ATOM     37  C   UNL     1      23.922   8.816  58.792  1.00  0.00     0.013 A 
ATOM     38  C   UNL     1      22.396   6.963  58.583  1.00  0.00     0.121 A 
ATOM     39  C   UNL     1      23.171   9.248  59.878  1.00  0.00     0.021 A 
ATOM     40  N   UNL     1      21.673   7.370  59.634  1.00  0.00    -0.264 NA
ATOM     41  C   UNL     1      22.046   8.509  60.241  1.00  0.00     0.111 A 
ENDBRANCH  34  36
ENDBRANCH  28  30
ENDBRANCH   6  28
TORSDOF 7
ENDMDL
MODEL 10
REMARK VINA RESULT:   -10.911      4.572      7.542
REMARK INTER + INTRA:         -13.790
REMARK INTER:                 -12.999
REMARK INTRA:                  -0.791
REMARK CONF_INDEPENDENT:        2.088
REMARK UNBOUND:                -0.791
REMARK SMILES Cc1cn(-c2cc(NC(=O)c3ccc(C)c(Nc4nccc(-c5cccnc5)n4)c3)cc(C(F)(F)F)c2)cn1
REMARK SMILES IDX 11 1 12 2 13 3 14 4 15 5 16 6 30 7 9 8 10 9 8 10 7 12 6 13
REMARK SMILES IDX 31 14 5 15 32 16 37 17 4 18 3 19 38 20 2 21 39 22 1 23 33 24
REMARK SMILES IDX 34 25 35 26 36 27 17 28 18 30 19 31 29 32 20 33 22 34 21 35
REMARK SMILES IDX 23 36 24 37 28 38 25 39 27 40 26 41
REMARK H PARENT 8 11 17 29
ROOT
ATOM      1  C   UNL     1      23.040   5.888  52.777  1.00  0.00     0.042 A 
ATOM      2  C   UNL     1      22.724   5.611  51.438  1.00  0.00     0.014 A 
ATOM      3  C   UNL     1      23.306   4.539  50.761  1.00  0.00     0.006 A 
ATOM      4  C   UNL     1      24.281   3.755  51.358  1.00  0.00    -0.027 A 
ATOM      5  C   UNL     1      24.912   2.593  50.605  1.00  0.00     0.046 C 
ATOM      6  C   UNL     1      24.674   4.089  52.653  1.00  0.00     0.045 A 
ATOM      7  C   UNL     1      24.060   5.154  53.325  1.00  0.00     0.040 A 
ENDROOT
BRANCH   1   8
ATOM      8  C   UNL     1      22.572   7.070  53.527  1.00  0.00     0.255 C 
ATOM      9  O   UNL     1      23.419   7.890  53.785  1.00  0.00    -0.269 OA
ATOM     10  N   UNL     1      21.242   7.225  53.616  1.00  0.00    -0.322 N 
ATOM     11  H   UNL     1      20.656   6.479  53.216  1.00  0.00     0.170 HD
BRANCH  10  12
ATOM     12  C   UNL     1      20.584   8.301  54.199  1.00  0.00     0.044 A 
ATOM     13  C   UNL     1      19.546   8.977  53.512  1.00  0.00     0.052 A 
ATOM     14  C   UNL     1      21.015   8.820  55.440  1.00  0.00     0.039 A 
ATOM     15  C   UNL     1      18.871  10.054  54.095  1.00  0.00     0.049 A 
ATOM     16  C   UNL     1      20.312   9.902  56.041  1.00  0.00     0.060 A 
ATOM     17  C   UNL     1      19.273  10.521  55.341  1.00  0.00     0.039 A 
BRANCH  15  18
ATOM     18  N   UNL     1      17.813  10.703  53.440  1.00  0.00    -0.306 N 
ATOM     19  C   UNL     1      16.594  11.133  53.959  1.00  0.00     0.116 A 
ATOM     20  C   UNL     1      17.723  10.967  52.131  1.00  0.00     0.204 A 
ATOM     21  C   UNL     1      15.853  11.628  52.943  1.00  0.00     0.056 A 
ATOM     22  N   UNL     1      16.590  11.545  51.813  1.00  0.00    -0.242 NA
ATOM     23  C   UNL     1      14.470  12.229  53.009  1.00  0.00     0.068 C 
ENDBRANCH  15  18
BRANCH  16  24
ATOM     24  C   UNL     1      20.752  10.392  57.382  1.00  0.00     0.416 C 
ATOM     25  F   UNL     1      19.753  10.706  58.231  1.00  0.00    -0.166 F 
ATOM     26  F   UNL     1      21.392   9.440  58.052  1.00  0.00    -0.166 F 
ATOM     27  F   UNL     1      21.465  11.534  57.302  1.00  0.00    -0.166 F 
ENDBRANCH  16  24
ENDBRANCH  10  12
ENDBRANCH   1   8
BRANCH   6  28
ATOM     28  N   UNL     1      25.534   3.218  53.334  1.00  0.00    -0.324 N 
ATOM     29  H   UNL     1      25.273   2.847  54.259  1.00  0.00     0.170 HD
BRANCH  28  30
ATOM     30  C   UNL     1      26.750   2.857  52.749  1.00  0.00     0.227 A 
ATOM     31  N   UNL     1      27.389   3.430  51.737  1.00  0.00    -0.221 NA
ATOM     32  N   UNL     1      27.175   1.718  53.354  1.00  0.00    -0.213 NA
ATOM     33  C   UNL     1      28.535   2.847  51.338  1.00  0.00     0.117 A 
ATOM     34  C   UNL     1      28.303   1.158  52.901  1.00  0.00     0.077 A 
ATOM     35  C   UNL     1      28.999   1.712  51.885  1.00  0.00     0.049 A 
BRANCH  34  36
ATOM     36  C   UNL     1      28.744  -0.067  53.618  1.00  0.00     0.019 A 
ATOM     37  C   UNL     1      28.059  -0.546  54.746  1.00  0.00     0.013 A 
ATOM     38  C   UNL     1      29.882  -0.777  53.188  1.00  0.00     0.121 A 
ATOM     39  C   UNL     1      28.532  -1.682  55.391  1.00  0.00     0.021 A 
ATOM     40  N   UNL     1      30.348  -1.867  53.810  1.00  0.00    -0.264 NA
ATOM     41  C   UNL     1      29.658  -2.318  54.870  1.00  0.00     0.111 A 
ENDBRANCH  34  36
ENDBRANCH  28  30
ENDBRANCH   6  28
TORSDOF 7
ENDMDL
MODEL 11
REMARK VINA RESULT:   -10.899      8.351     15.198
REMARK INTER + INTRA:         -14.292
REMARK INTER:                 -12.987
REMARK INTRA:                  -1.305
REMARK CONF_INDEPENDENT:        2.088
REMARK UNBOUND:                -1.305
REMARK SMILES Cc1cn(-c2cc(NC(=O)c3ccc(C)c(Nc4nccc(-c5cccnc5)n4)c3)cc(C(F)(F)F)c2)cn1
REMARK SMILES IDX 11 1 12 2 13 3 14 4 15 5 16 6 30 7 9 8 10 9 8 10 7 12 6 13
REMARK SMILES IDX 31 14 5 15 32 16 37 17 4 18 3 19 38 20 2 21 39 22 1 23 33 24
REMARK SMILES IDX 34 25 35 26 36 27 17 28 18 30 19 31 29 32 20 33 22 34 21 35
REMARK SMILES IDX 23 36 24 37 28 38 25 39 27 40 26 41
REMARK H PARENT 8 11 17 29
ROOT
ATOM      1  C   UNL     1      35.999  -1.667  49.276  1.00  0.00     0.042 A 
ATOM      2  C   UNL     1      35.216  -2.826  49.164  1.00  0.00     0.014 A 
ATOM      3  C   UNL     1      33.842  -2.801  49.409  1.00  0.00     0.006 A 
ATOM      4  C   UNL     1      33.212  -1.650  49.853  1.00  0.00    -0.027 A 
ATOM      5  C   UNL     1      31.714  -1.640  50.123  1.00  0.00     0.046 C 
ATOM      6  C   UNL     1      34.003  -0.522  50.066  1.00  0.00     0.045 A 
ATOM      7  C   UNL     1      35.376  -0.560  49.791  1.00  0.00     0.040 A 
ENDROOT
BRANCH   1   8
ATOM      8  C   UNL     1      37.470  -1.629  49.161  1.00  0.00     0.255 C 
ATOM      9  O   UNL     1      38.056  -1.214  50.131  1.00  0.00    -0.269 OA
ATOM     10  N   UNL     1      37.999  -2.282  48.115  1.00  0.00    -0.322 N 
ATOM     11  H   UNL     1      37.340  -2.699  47.442  1.00  0.00     0.170 HD
BRANCH  10  12
ATOM     12  C   UNL     1      39.354  -2.447  47.856  1.00  0.00     0.044 A 
ATOM     13  C   UNL     1      39.915  -2.028  46.624  1.00  0.00     0.052 A 
ATOM     14  C   UNL     1      40.179  -3.144  48.765  1.00  0.00     0.039 A 
ATOM     15  C   UNL     1      41.278  -2.180  46.358  1.00  0.00     0.049 A 
ATOM     16  C   UNL     1      41.572  -3.279  48.502  1.00  0.00     0.060 A 
ATOM     17  C   UNL     1      42.090  -2.824  47.287  1.00  0.00     0.039 A 
BRANCH  15  18
ATOM     18  N   UNL     1      41.851  -1.731  45.159  1.00  0.00    -0.306 N 
ATOM     19  C   UNL     1      42.150  -0.428  44.765  1.00  0.00     0.116 A 
ATOM     20  C   UNL     1      42.150  -2.474  44.086  1.00  0.00     0.204 A 
ATOM     21  C   UNL     1      42.610  -0.466  43.496  1.00  0.00     0.056 A 
ATOM     22  N   UNL     1      42.633  -1.758  43.100  1.00  0.00    -0.242 NA
ATOM     23  C   UNL     1      43.080   0.689  42.643  1.00  0.00     0.068 C 
ENDBRANCH  15  18
BRANCH  16  24
ATOM     24  C   UNL     1      42.433  -3.969  49.510  1.00  0.00     0.416 C 
ATOM     25  F   UNL     1      43.759  -3.815  49.326  1.00  0.00    -0.166 F 
ATOM     26  F   UNL     1      42.261  -3.449  50.720  1.00  0.00    -0.166 F 
ATOM     27  F   UNL     1      42.268  -5.307  49.495  1.00  0.00    -0.166 F 
ENDBRANCH  16  24
ENDBRANCH  10  12
ENDBRANCH   1   8
BRANCH   6  28
ATOM     28  N   UNL     1      33.368   0.692  50.356  1.00  0.00    -0.324 N 
ATOM     29  H   UNL     1      33.035   1.300  49.594  1.00  0.00     0.170 HD
BRANCH  28  30
ATOM     30  C   UNL     1      33.188   1.073  51.688  1.00  0.00     0.227 A 
ATOM     31  N   UNL     1      33.886   1.944  52.406  1.00  0.00    -0.221 NA
ATOM     32  N   UNL     1      32.181   0.319  52.199  1.00  0.00    -0.213 NA
ATOM     33  C   UNL     1      33.525   2.093  53.695  1.00  0.00     0.117 A 
ATOM     34  C   UNL     1      31.880   0.479  53.493  1.00  0.00     0.077 A 
ATOM     35  C   UNL     1      32.549   1.366  54.261  1.00  0.00     0.049 A 
BRANCH  34  36
ATOM     36  C   UNL     1      30.749  -0.343  53.996  1.00  0.00     0.019 A 
ATOM     37  C   UNL     1      29.668   0.234  54.681  1.00  0.00     0.013 A 
ATOM     38  C   UNL     1      30.740  -1.739  53.808  1.00  0.00     0.121 A 
ATOM     39  C   UNL     1      28.650  -0.587  55.150  1.00  0.00     0.021 A 
ATOM     40  N   UNL     1      29.766  -2.537  54.265  1.00  0.00    -0.264 NA
ATOM     41  C   UNL     1      28.732  -1.955  54.894  1.00  0.00     0.111 A 
ENDBRANCH  34  36
ENDBRANCH  28  30
ENDBRANCH   6  28
TORSDOF 7
ENDMDL
MODEL 12
REMARK VINA RESULT:   -10.841      3.832     11.691
REMARK INTER + INTRA:         -14.219
REMARK INTER:                 -12.929
REMARK INTRA:                  -1.290
REMARK CONF_INDEPENDENT:        2.088
REMARK UNBOUND:                -1.290
REMARK SMILES Cc1cn(-c2cc(NC(=O)c3ccc(C)c(Nc4nccc(-c5cccnc5)n4)c3)cc(C(F)(F)F)c2)cn1
REMARK SMILES IDX 11 1 12 2 13 3 14 4 15 5 16 6 30 7 9 8 10 9 8 10 7 12 6 13
REMARK SMILES IDX 31 14 5 15 32 16 37 17 4 18 3 19 38 20 2 21 39 22 1 23 33 24
REMARK SMILES IDX 34 25 35 26 36 27 17 28 18 30 19 31 29 32 20 33 22 34 21 35
REMARK SMILES IDX 23 36 24 37 28 38 25 39 27 40 26 41
REMARK H PARENT 8 11 17 29
ROOT
ATOM      1  C   UNL     1      25.932   3.834  51.930  1.00  0.00     0.042 A 
ATOM      2  C   UNL     1      25.258   4.226  50.764  1.00  0.00     0.014 A 
ATOM      3  C   UNL     1      24.126   5.041  50.817  1.00  0.00     0.006 A 
ATOM      4  C   UNL     1      23.575   5.426  52.028  1.00  0.00    -0.027 A 
ATOM      5  C   UNL     1      22.336   6.309  52.071  1.00  0.00     0.046 C 
ATOM      6  C   UNL     1      24.179   4.955  53.193  1.00  0.00     0.045 A 
ATOM      7  C   UNL     1      25.329   4.158  53.118  1.00  0.00     0.040 A 
ENDROOT
BRANCH   1   8
ATOM      8  C   UNL     1      27.054   2.876  51.975  1.00  0.00     0.255 C 
ATOM      9  O   UNL     1      27.793   2.898  51.021  1.00  0.00    -0.269 OA
ATOM     10  N   UNL     1      27.274   2.277  53.155  1.00  0.00    -0.322 N 
ATOM     11  H   UNL     1      26.608   2.480  53.914  1.00  0.00     0.170 HD
BRANCH  10  12
ATOM     12  C   UNL     1      28.318   1.409  53.447  1.00  0.00     0.044 A 
ATOM     13  C   UNL     1      29.626   1.653  52.959  1.00  0.00     0.052 A 
ATOM     14  C   UNL     1      28.075   0.200  54.135  1.00  0.00     0.039 A 
ATOM     15  C   UNL     1      30.685   0.791  53.256  1.00  0.00     0.049 A 
ATOM     16  C   UNL     1      29.159  -0.667  54.455  1.00  0.00     0.060 A 
ATOM     17  C   UNL     1      30.439  -0.372  53.979  1.00  0.00     0.039 A 
BRANCH  15  18
ATOM     18  N   UNL     1      31.991   1.046  52.813  1.00  0.00    -0.306 N 
ATOM     19  C   UNL     1      32.629   0.593  51.659  1.00  0.00     0.116 A 
ATOM     20  C   UNL     1      32.942   1.720  53.470  1.00  0.00     0.204 A 
ATOM     21  C   UNL     1      33.910   1.021  51.690  1.00  0.00     0.056 A 
ATOM     22  N   UNL     1      34.077   1.752  52.815  1.00  0.00    -0.242 NA
ATOM     23  C   UNL     1      34.988   0.800  50.656  1.00  0.00     0.068 C 
ENDBRANCH  15  18
BRANCH  16  24
ATOM     24  C   UNL     1      28.883  -1.910  55.236  1.00  0.00     0.416 C 
ATOM     25  F   UNL     1      28.051  -2.786  54.638  1.00  0.00    -0.166 F 
ATOM     26  F   UNL     1      29.985  -2.635  55.385  1.00  0.00    -0.166 F 
ATOM     27  F   UNL     1      28.273  -1.652  56.412  1.00  0.00    -0.166 F 
ENDBRANCH  16  24
ENDBRANCH  10  12
ENDBRANCH   1   8
BRANCH   6  28
ATOM     28  N   UNL     1      23.741   5.460  54.423  1.00  0.00    -0.324 N 
ATOM     29  H   UNL     1      22.862   5.122  54.840  1.00  0.00     0.170 HD
BRANCH  28  30
ATOM     30  C   UNL     1      24.505   6.427  55.080  1.00  0.00     0.227 A 
ATOM     31  N   UNL     1      25.532   6.259  55.903  1.00  0.00    -0.221 NA
ATOM     32  N   UNL     1      23.964   7.641  54.798  1.00  0.00    -0.213 NA
ATOM     33  C   UNL     1      26.067   7.372  56.439  1.00  0.00     0.117 A 
ATOM     34  C   UNL     1      24.510   8.715  55.380  1.00  0.00     0.077 A 
ATOM     35  C   UNL     1      25.568   8.597  56.211  1.00  0.00     0.049 A 
BRANCH  34  36
ATOM     36  C   UNL     1      23.905  10.021  55.013  1.00  0.00     0.019 A 
ATOM     37  C   UNL     1      24.648  11.212  55.050  1.00  0.00     0.013 A 
ATOM     38  C   UNL     1      22.552  10.100  54.628  1.00  0.00     0.121 A 
ATOM     39  C   UNL     1      24.023  12.408  54.720  1.00  0.00     0.021 A 
ATOM     40  N   UNL     1      21.942  11.251  54.317  1.00  0.00    -0.264 NA
ATOM     41  C   UNL     1      22.683  12.371  54.337  1.00  0.00     0.111 A 
ENDBRANCH  34  36
ENDBRANCH  28  30
ENDBRANCH   6  28
TORSDOF 7
ENDMDL
MODEL 13
REMARK VINA RESULT:   -10.803      4.747     13.573
REMARK INTER + INTRA:         -14.216
REMARK INTER:                 -12.891
REMARK INTRA:                  -1.324
REMARK CONF_INDEPENDENT:        2.088
REMARK UNBOUND:                -1.324
REMARK SMILES Cc1cn(-c2cc(NC(=O)c3ccc(C)c(Nc4nccc(-c5cccnc5)n4)c3)cc(C(F)(F)F)c2)cn1
REMARK SMILES IDX 11 1 12 2 13 3 14 4 15 5 16 6 30 7 9 8 10 9 8 10 7 12 6 13
REMARK SMILES IDX 31 14 5 15 32 16 37 17 4 18 3 19 38 20 2 21 39 22 1 23 33 24
REMARK SMILES IDX 34 25 35 26 36 27 17 28 18 30 19 31 29 32 20 33 22 34 21 35
REMARK SMILES IDX 23 36 24 37 28 38 25 39 27 40 26 41
REMARK H PARENT 8 11 17 29
ROOT
ATOM      1  C   UNL     1      21.059   7.333  54.284  1.00  0.00     0.042 A 
ATOM      2  C   UNL     1      20.912   7.482  55.671  1.00  0.00     0.014 A 
ATOM      3  C   UNL     1      20.175   8.535  56.215  1.00  0.00     0.006 A 
ATOM      4  C   UNL     1      19.628   9.521  55.409  1.00  0.00    -0.027 A 
ATOM      5  C   UNL     1      18.832  10.667  56.017  1.00  0.00     0.046 C 
ATOM      6  C   UNL     1      19.858   9.434  54.037  1.00  0.00     0.045 A 
ATOM      7  C   UNL     1      20.579   8.356  53.509  1.00  0.00     0.040 A 
ENDROOT
BRANCH   1   8
ATOM      8  C   UNL     1      21.921   6.329  53.630  1.00  0.00     0.255 C 
ATOM      9  O   UNL     1      21.902   5.228  54.125  1.00  0.00    -0.269 OA
ATOM     10  N   UNL     1      22.424   6.670  52.434  1.00  0.00    -0.322 N 
ATOM     11  H   UNL     1      22.225   7.623  52.097  1.00  0.00     0.170 HD
BRANCH  10  12
ATOM     12  C   UNL     1      23.187   5.855  51.607  1.00  0.00     0.044 A 
ATOM     13  C   UNL     1      24.271   5.104  52.126  1.00  0.00     0.052 A 
ATOM     14  C   UNL     1      22.977   5.850  50.211  1.00  0.00     0.039 A 
ATOM     15  C   UNL     1      25.039   4.274  51.305  1.00  0.00     0.049 A 
ATOM     16  C   UNL     1      23.745   4.987  49.379  1.00  0.00     0.060 A 
ATOM     17  C   UNL     1      24.785   4.240  49.937  1.00  0.00     0.039 A 
BRANCH  15  18
ATOM     18  N   UNL     1      26.087   3.495  51.816  1.00  0.00    -0.306 N 
ATOM     19  C   UNL     1      26.456   3.287  53.144  1.00  0.00     0.116 A 
ATOM     20  C   UNL     1      27.024   2.850  51.111  1.00  0.00     0.204 A 
ATOM     21  C   UNL     1      27.578   2.534  53.157  1.00  0.00     0.056 A 
ATOM     22  N   UNL     1      27.898   2.243  51.877  1.00  0.00    -0.242 NA
ATOM     23  C   UNL     1      28.345   2.031  54.356  1.00  0.00     0.068 C 
ENDBRANCH  15  18
BRANCH  16  24
ATOM     24  C   UNL     1      23.461   4.956  47.912  1.00  0.00     0.416 C 
ATOM     25  F   UNL     1      24.212   5.792  47.169  1.00  0.00    -0.166 F 
ATOM     26  F   UNL     1      23.767   3.774  47.391  1.00  0.00    -0.166 F 
ATOM     27  F   UNL     1      22.197   5.334  47.627  1.00  0.00    -0.166 F 
ENDBRANCH  16  24
ENDBRANCH  10  12
ENDBRANCH   1   8
BRANCH   6  28
ATOM     28  N   UNL     1      19.182  10.323  53.191  1.00  0.00    -0.324 N 
ATOM     29  H   UNL     1      19.708  10.906  52.524  1.00  0.00     0.170 HD
BRANCH  28  30
ATOM     30  C   UNL     1      17.790  10.412  53.258  1.00  0.00     0.227 A 
ATOM     31  N   UNL     1      17.025  11.496  53.258  1.00  0.00    -0.221 NA
ATOM     32  N   UNL     1      17.304   9.153  53.410  1.00  0.00    -0.213 NA
ATOM     33  C   UNL     1      15.698  11.300  53.379  1.00  0.00     0.117 A 
ATOM     34  C   UNL     1      15.982   9.011  53.559  1.00  0.00     0.077 A 
ATOM     35  C   UNL     1      15.159  10.082  53.547  1.00  0.00     0.049 A 
BRANCH  34  36
ATOM     36  C   UNL     1      15.497   7.612  53.686  1.00  0.00     0.019 A 
ATOM     37  C   UNL     1      14.643   7.222  54.731  1.00  0.00     0.013 A 
ATOM     38  C   UNL     1      15.898   6.629  52.761  1.00  0.00     0.121 A 
ATOM     39  C   UNL     1      14.242   5.895  54.814  1.00  0.00     0.021 A 
ATOM     40  N   UNL     1      15.521   5.346  52.841  1.00  0.00    -0.264 NA
ATOM     41  C   UNL     1      14.684   5.006  53.835  1.00  0.00     0.111 A 
ENDBRANCH  34  36
ENDBRANCH  28  30
ENDBRANCH   6  28
TORSDOF 7
ENDMDL
MODEL 14
REMARK VINA RESULT:   -10.722      3.452      5.499
REMARK INTER + INTRA:         -13.892
REMARK INTER:                 -12.810
REMARK INTRA:                  -1.082
REMARK CONF_INDEPENDENT:        2.088
REMARK UNBOUND:                -1.082
REMARK SMILES Cc1cn(-c2cc(NC(=O)c3ccc(C)c(Nc4nccc(-c5cccnc5)n4)c3)cc(C(F)(F)F)c2)cn1
REMARK SMILES IDX 11 1 12 2 13 3 14 4 15 5 16 6 30 7 9 8 10 9 8 10 7 12 6 13
REMARK SMILES IDX 31 14 5 15 32 16 37 17 4 18 3 19 38 20 2 21 39 22 1 23 33 24
REMARK SMILES IDX 34 25 35 26 36 27 17 28 18 30 19 31 29 32 20 33 22 34 21 35
REMARK SMILES IDX 23 36 24 37 28 38 25 39 27 40 26 41
REMARK H PARENT 8 11 17 29
ROOT
ATOM      1  C   UNL     1      27.722   1.908  52.429  1.00  0.00     0.042 A 
ATOM      2  C   UNL     1      27.999   0.765  51.664  1.00  0.00     0.014 A 
ATOM      3  C   UNL     1      28.976  -0.152  52.055  1.00  0.00     0.006 A 
ATOM      4  C   UNL     1      29.767   0.072  53.170  1.00  0.00    -0.027 A 
ATOM      5  C   UNL     1      30.833  -0.934  53.580  1.00  0.00     0.046 C 
ATOM      6  C   UNL     1      29.567   1.256  53.876  1.00  0.00     0.045 A 
ATOM      7  C   UNL     1      28.565   2.152  53.482  1.00  0.00     0.040 A 
ENDROOT
BRANCH   1   8
ATOM      8  C   UNL     1      26.802   2.989  52.027  1.00  0.00     0.255 C 
ATOM      9  O   UNL     1      26.761   3.222  50.844  1.00  0.00    -0.269 OA
ATOM     10  N   UNL     1      25.942   3.414  52.966  1.00  0.00    -0.322 N 
ATOM     11  H   UNL     1      26.035   3.002  53.905  1.00  0.00     0.170 HD
BRANCH  10  12
ATOM     12  C   UNL     1      24.938   4.357  52.786  1.00  0.00     0.044 A 
ATOM     13  C   UNL     1      24.188   4.840  53.887  1.00  0.00     0.052 A 
ATOM     14  C   UNL     1      24.561   4.766  51.488  1.00  0.00     0.039 A 
ATOM     15  C   UNL     1      23.183   5.796  53.717  1.00  0.00     0.049 A 
ATOM     16  C   UNL     1      23.553   5.757  51.319  1.00  0.00     0.060 A 
ATOM     17  C   UNL     1      22.858   6.229  52.436  1.00  0.00     0.039 A 
BRANCH  15  18
ATOM     18  N   UNL     1      22.463   6.311  54.806  1.00  0.00    -0.306 N 
ATOM     19  C   UNL     1      22.892   6.533  56.113  1.00  0.00     0.116 A 
ATOM     20  C   UNL     1      21.161   6.616  54.833  1.00  0.00     0.204 A 
ATOM     21  C   UNL     1      21.835   6.958  56.838  1.00  0.00     0.056 A 
ATOM     22  N   UNL     1      20.768   7.035  56.012  1.00  0.00    -0.242 NA
ATOM     23  C   UNL     1      21.804   7.345  58.297  1.00  0.00     0.068 C 
ENDBRANCH  15  18
BRANCH  16  24
ATOM     24  C   UNL     1      23.216   6.216  49.938  1.00  0.00     0.416 C 
ATOM     25  F   UNL     1      23.460   7.519  49.695  1.00  0.00    -0.166 F 
ATOM     26  F   UNL     1      23.986   5.619  49.036  1.00  0.00    -0.166 F 
ATOM     27  F   UNL     1      21.902   6.086  49.660  1.00  0.00    -0.166 F 
ENDBRANCH  16  24
ENDBRANCH  10  12
ENDBRANCH   1   8
BRANCH   6  28
ATOM     28  N   UNL     1      30.238   1.428  55.094  1.00  0.00    -0.324 N 
ATOM     29  H   UNL     1      29.973   0.868  55.916  1.00  0.00     0.170 HD
BRANCH  28  30
ATOM     30  C   UNL     1      31.270   2.365  55.183  1.00  0.00     0.227 A 
ATOM     31  N   UNL     1      32.172   2.699  54.269  1.00  0.00    -0.221 NA
ATOM     32  N   UNL     1      31.265   2.863  56.446  1.00  0.00    -0.213 NA
ATOM     33  C   UNL     1      33.093   3.611  54.634  1.00  0.00     0.117 A 
ATOM     34  C   UNL     1      32.220   3.742  56.771  1.00  0.00     0.077 A 
ATOM     35  C   UNL     1      33.150   4.128  55.871  1.00  0.00     0.049 A 
BRANCH  34  36
ATOM     36  C   UNL     1      32.151   4.283  58.154  1.00  0.00     0.019 A 
ATOM     37  C   UNL     1      32.517   3.509  59.266  1.00  0.00     0.013 A 
ATOM     38  C   UNL     1      31.698   5.597  58.386  1.00  0.00     0.121 A 
ATOM     39  C   UNL     1      32.408   4.059  60.537  1.00  0.00     0.021 A 
ATOM     40  N   UNL     1      31.583   6.130  59.609  1.00  0.00    -0.264 NA
ATOM     41  C   UNL     1      31.964   5.376  60.653  1.00  0.00     0.111 A 
ENDBRANCH  34  36
ENDBRANCH  28  30
ENDBRANCH   6  28
TORSDOF 7
ENDMDL
MODEL 15
REMARK VINA RESULT:   -10.638      4.752      8.342
REMARK INTER + INTRA:         -13.875
REMARK INTER:                 -12.727
REMARK INTRA:                  -1.149
REMARK CONF_INDEPENDENT:        2.088
REMARK UNBOUND:                -1.149
REMARK SMILES Cc1cn(-c2cc(NC(=O)c3ccc(C)c(Nc4nccc(-c5cccnc5)n4)c3)cc(C(F)(F)F)c2)cn1
REMARK SMILES IDX 11 1 12 2 13 3 14 4 15 5 16 6 30 7 9 8 10 9 8 10 7 12 6 13
REMARK SMILES IDX 31 14 5 15 32 16 37 17 4 18 3 19 38 20 2 21 39 22 1 23 33 24
REMARK SMILES IDX 34 25 35 26 36 27 17 28 18 30 19 31 29 32 20 33 22 34 21 35
REMARK SMILES IDX 23 36 24 37 28 38 25 39 27 40 26 41
REMARK H PARENT 8 11 17 29
ROOT
ATOM      1  C   UNL     1      34.334  -0.824  50.671  1.00  0.00     0.042 A 
ATOM      2  C   UNL     1      34.359  -2.051  49.991  1.00  0.00     0.014 A 
ATOM      3  C   UNL     1      35.357  -2.345  49.060  1.00  0.00     0.006 A 
ATOM      4  C   UNL     1      36.312  -1.405  48.709  1.00  0.00    -0.027 A 
ATOM      5  C   UNL     1      37.389  -1.738  47.686  1.00  0.00     0.046 C 
ATOM      6  C   UNL     1      36.230  -0.148  49.305  1.00  0.00     0.045 A 
ATOM      7  C   UNL     1      35.237   0.120  50.255  1.00  0.00     0.040 A 
ENDROOT
BRANCH   1   8
ATOM      8  C   UNL     1      33.251  -0.382  51.572  1.00  0.00     0.255 C 
ATOM      9  O   UNL     1      33.434   0.678  52.120  1.00  0.00    -0.269 OA
ATOM     10  N   UNL     1      32.098  -1.062  51.490  1.00  0.00    -0.322 N 
ATOM     11  H   UNL     1      32.079  -1.876  50.859  1.00  0.00     0.170 HD
BRANCH  10  12
ATOM     12  C   UNL     1      30.928  -0.770  52.179  1.00  0.00     0.044 A 
ATOM     13  C   UNL     1      30.120   0.332  51.805  1.00  0.00     0.052 A 
ATOM     14  C   UNL     1      30.580  -1.492  53.342  1.00  0.00     0.039 A 
ATOM     15  C   UNL     1      28.935   0.627  52.486  1.00  0.00     0.049 A 
ATOM     16  C   UNL     1      29.362  -1.203  54.021  1.00  0.00     0.060 A 
ATOM     17  C   UNL     1      28.579  -0.126  53.600  1.00  0.00     0.039 A 
BRANCH  15  18
ATOM     18  N   UNL     1      28.106   1.691  52.097  1.00  0.00    -0.306 N 
ATOM     19  C   UNL     1      27.074   2.301  52.807  1.00  0.00     0.116 A 
ATOM     20  C   UNL     1      28.079   2.288  50.900  1.00  0.00     0.204 A 
ATOM     21  C   UNL     1      26.498   3.223  52.005  1.00  0.00     0.056 A 
ATOM     22  N   UNL     1      27.161   3.222  50.828  1.00  0.00    -0.242 NA
ATOM     23  C   UNL     1      25.353   4.152  52.331  1.00  0.00     0.068 C 
ENDBRANCH  15  18
BRANCH  16  24
ATOM     24  C   UNL     1      28.989  -2.022  55.214  1.00  0.00     0.416 C 
ATOM     25  F   UNL     1      28.152  -3.047  54.962  1.00  0.00    -0.166 F 
ATOM     26  F   UNL     1      30.049  -2.648  55.713  1.00  0.00    -0.166 F 
ATOM     27  F   UNL     1      28.331  -1.301  56.145  1.00  0.00    -0.166 F 
ENDBRANCH  16  24
ENDBRANCH  10  12
ENDBRANCH   1   8
BRANCH   6  28
ATOM     28  N   UNL     1      37.275   0.761  49.090  1.00  0.00    -0.324 N 
ATOM     29  H   UNL     1      37.080   1.692  48.696  1.00  0.00     0.170 HD
BRANCH  28  30
ATOM     30  C   UNL     1      38.582   0.393  49.416  1.00  0.00     0.227 A 
ATOM     31  N   UNL     1      39.002  -0.440  50.359  1.00  0.00    -0.221 NA
ATOM     32  N   UNL     1      39.421   1.115  48.628  1.00  0.00    -0.213 NA
ATOM     33  C   UNL     1      40.335  -0.583  50.491  1.00  0.00     0.117 A 
ATOM     34  C   UNL     1      40.736   0.962  48.817  1.00  0.00     0.077 A 
ATOM     35  C   UNL     1      41.213   0.113  49.753  1.00  0.00     0.049 A 
BRANCH  34  36
ATOM     36  C   UNL     1      41.611   1.747  47.907  1.00  0.00     0.019 A 
ATOM     37  C   UNL     1      41.467   1.682  46.512  1.00  0.00     0.013 A 
ATOM     38  C   UNL     1      42.628   2.572  48.428  1.00  0.00     0.121 A 
ATOM     39  C   UNL     1      42.330   2.418  45.710  1.00  0.00     0.021 A 
ATOM     40  N   UNL     1      43.467   3.278  47.659  1.00  0.00    -0.264 NA
ATOM     41  C   UNL     1      43.291   3.217  46.329  1.00  0.00     0.111 A 
ENDBRANCH  34  36
ENDBRANCH  28  30
ENDBRANCH   6  28
TORSDOF 7
ENDMDL
MODEL 16
REMARK VINA RESULT:   -10.547      8.264     14.890
REMARK INTER + INTRA:         -13.991
REMARK INTER:                 -12.635
REMARK INTRA:                  -1.355
REMARK CONF_INDEPENDENT:        2.088
REMARK UNBOUND:                -1.355
REMARK SMILES Cc1cn(-c2cc(NC(=O)c3ccc(C)c(Nc4nccc(-c5cccnc5)n4)c3)cc(C(F)(F)F)c2)cn1
REMARK SMILES IDX 11 1 12 2 13 3 14 4 15 5 16 6 30 7 9 8 10 9 8 10 7 12 6 13
REMARK SMILES IDX 31 14 5 15 32 16 37 17 4 18 3 19 38 20 2 21 39 22 1 23 33 24
REMARK SMILES IDX 34 25 35 26 36 27 17 28 18 30 19 31 29 32 20 33 22 34 21 35
REMARK SMILES IDX 23 36 24 37 28 38 25 39 27 40 26 41
REMARK H PARENT 8 11 17 29
ROOT
ATOM      1  C   UNL     1      36.204  -1.566  49.555  1.00  0.00     0.042 A 
ATOM      2  C   UNL     1      35.536  -2.774  49.310  1.00  0.00     0.014 A 
ATOM      3  C   UNL     1      34.145  -2.864  49.386  1.00  0.00     0.006 A 
ATOM      4  C   UNL     1      33.376  -1.784  49.788  1.00  0.00    -0.027 A 
ATOM      5  C   UNL     1      31.861  -1.898  49.874  1.00  0.00     0.046 C 
ATOM      6  C   UNL     1      34.043  -0.609  50.134  1.00  0.00     0.045 A 
ATOM      7  C   UNL     1      35.438  -0.532  50.027  1.00  0.00     0.040 A 
ENDROOT
BRANCH   1   8
ATOM      8  C   UNL     1      37.671  -1.412  49.621  1.00  0.00     0.255 C 
ATOM      9  O   UNL     1      38.071  -0.587  50.407  1.00  0.00    -0.269 OA
ATOM     10  N   UNL     1      38.394  -2.358  49.004  1.00  0.00    -0.322 N 
ATOM     11  H   UNL     1      37.874  -3.076  48.480  1.00  0.00     0.170 HD
BRANCH  10  12
ATOM     12  C   UNL     1      39.779  -2.459  49.007  1.00  0.00     0.044 A 
ATOM     13  C   UNL     1      40.504  -2.475  50.224  1.00  0.00     0.052 A 
ATOM     14  C   UNL     1      40.504  -2.426  47.796  1.00  0.00     0.039 A 
ATOM     15  C   UNL     1      41.898  -2.586  50.238  1.00  0.00     0.049 A 
ATOM     16  C   UNL     1      41.922  -2.561  47.812  1.00  0.00     0.060 A 
ATOM     17  C   UNL     1      42.595  -2.604  49.035  1.00  0.00     0.039 A 
BRANCH  15  18
ATOM     18  N   UNL     1      42.622  -2.645  51.438  1.00  0.00    -0.306 N 
ATOM     19  C   UNL     1      42.606  -3.631  52.423  1.00  0.00     0.116 A 
ATOM     20  C   UNL     1      43.426  -1.698  51.936  1.00  0.00     0.204 A 
ATOM     21  C   UNL     1      43.396  -3.225  53.440  1.00  0.00     0.056 A 
ATOM     22  N   UNL     1      43.926  -2.028  53.102  1.00  0.00    -0.242 NA
ATOM     23  C   UNL     1      43.712  -3.958  54.721  1.00  0.00     0.068 C 
ENDBRANCH  15  18
BRANCH  16  24
ATOM     24  C   UNL     1      42.659  -2.584  46.512  1.00  0.00     0.416 C 
ATOM     25  F   UNL     1      42.866  -1.375  45.953  1.00  0.00    -0.166 F 
ATOM     26  F   UNL     1      43.900  -3.028  46.674  1.00  0.00    -0.166 F 
ATOM     27  F   UNL     1      41.990  -3.261  45.555  1.00  0.00    -0.166 F 
ENDBRANCH  16  24
ENDBRANCH  10  12
ENDBRANCH   1   8
BRANCH   6  28
ATOM     28  N   UNL     1      33.283   0.540  50.386  1.00  0.00    -0.324 N 
ATOM     29  H   UNL     1      32.857   1.062  49.607  1.00  0.00     0.170 HD
BRANCH  28  30
ATOM     30  C   UNL     1      33.106   0.972  51.702  1.00  0.00     0.227 A 
ATOM     31  N   UNL     1      33.813   1.862  52.388  1.00  0.00    -0.221 NA
ATOM     32  N   UNL     1      32.090   0.250  52.239  1.00  0.00    -0.213 NA
ATOM     33  C   UNL     1      33.452   2.063  53.669  1.00  0.00     0.117 A 
ATOM     34  C   UNL     1      31.789   0.462  53.526  1.00  0.00     0.077 A 
ATOM     35  C   UNL     1      32.467   1.370  54.261  1.00  0.00     0.049 A 
BRANCH  34  36
ATOM     36  C   UNL     1      30.647  -0.327  54.057  1.00  0.00     0.019 A 
ATOM     37  C   UNL     1      29.578   0.288  54.729  1.00  0.00     0.013 A 
ATOM     38  C   UNL     1      30.615  -1.727  53.911  1.00  0.00     0.121 A 
ATOM     39  C   UNL     1      28.550  -0.503  55.226  1.00  0.00     0.021 A 
ATOM     40  N   UNL     1      29.631  -2.495  54.395  1.00  0.00    -0.264 NA
ATOM     41  C   UNL     1      28.609  -1.879  55.011  1.00  0.00     0.111 A 
ENDBRANCH  34  36
ENDBRANCH  28  30
ENDBRANCH   6  28
TORSDOF 7
ENDMDL
MODEL 17
REMARK VINA RESULT:   -10.544      5.783     10.903
REMARK INTER + INTRA:         -13.778
REMARK INTER:                 -12.632
REMARK INTRA:                  -1.145
REMARK CONF_INDEPENDENT:        2.088
REMARK UNBOUND:                -1.145
REMARK SMILES Cc1cn(-c2cc(NC(=O)c3ccc(C)c(Nc4nccc(-c5cccnc5)n4)c3)cc(C(F)(F)F)c2)cn1
REMARK SMILES IDX 11 1 12 2 13 3 14 4 15 5 16 6 30 7 9 8 10 9 8 10 7 12 6 13
REMARK SMILES IDX 31 14 5 15 32 16 37 17 4 18 3 19 38 20 2 21 39 22 1 23 33 24
REMARK SMILES IDX 34 25 35 26 36 27 17 28 18 30 19 31 29 32 20 33 22 34 21 35
REMARK SMILES IDX 23 36 24 37 28 38 25 39 27 40 26 41
REMARK H PARENT 8 11 17 29
ROOT
ATOM      1  C   UNL     1      22.320   6.467  55.260  1.00  0.00     0.042 A 
ATOM      2  C   UNL     1      21.591   7.606  54.885  1.00  0.00     0.014 A 
ATOM      3  C   UNL     1      21.131   8.520  55.834  1.00  0.00     0.006 A 
ATOM      4  C   UNL     1      21.305   8.296  57.190  1.00  0.00    -0.027 A 
ATOM      5  C   UNL     1      20.792   9.298  58.215  1.00  0.00     0.046 C 
ATOM      6  C   UNL     1      21.937   7.114  57.574  1.00  0.00     0.045 A 
ATOM      7  C   UNL     1      22.413   6.222  56.605  1.00  0.00     0.040 A 
ENDROOT
BRANCH   1   8
ATOM      8  C   UNL     1      22.732   5.389  54.340  1.00  0.00     0.255 C 
ATOM      9  O   UNL     1      21.843   4.672  53.950  1.00  0.00    -0.269 OA
ATOM     10  N   UNL     1      23.976   5.475  53.846  1.00  0.00    -0.322 N 
ATOM     11  H   UNL     1      24.566   6.244  54.197  1.00  0.00     0.170 HD
BRANCH  10  12
ATOM     12  C   UNL     1      24.543   4.623  52.907  1.00  0.00     0.044 A 
ATOM     13  C   UNL     1      23.795   4.169  51.792  1.00  0.00     0.052 A 
ATOM     14  C   UNL     1      25.837   4.094  53.105  1.00  0.00     0.039 A 
ATOM     15  C   UNL     1      24.359   3.320  50.837  1.00  0.00     0.049 A 
ATOM     16  C   UNL     1      26.418   3.246  52.119  1.00  0.00     0.060 A 
ATOM     17  C   UNL     1      25.654   2.848  51.019  1.00  0.00     0.039 A 
BRANCH  15  18
ATOM     18  N   UNL     1      23.640   2.898  49.708  1.00  0.00    -0.306 N 
ATOM     19  C   UNL     1      22.849   1.762  49.547  1.00  0.00     0.116 A 
ATOM     20  C   UNL     1      23.642   3.470  48.498  1.00  0.00     0.204 A 
ATOM     21  C   UNL     1      22.424   1.722  48.265  1.00  0.00     0.056 A 
ATOM     22  N   UNL     1      22.904   2.816  47.634  1.00  0.00    -0.242 NA
ATOM     23  C   UNL     1      21.528   0.695  47.616  1.00  0.00     0.068 C 
ENDBRANCH  15  18
BRANCH  16  24
ATOM     24  C   UNL     1      27.811   2.749  52.326  1.00  0.00     0.416 C 
ATOM     25  F   UNL     1      28.714   3.195  51.429  1.00  0.00    -0.166 F 
ATOM     26  F   UNL     1      28.314   3.200  53.469  1.00  0.00    -0.166 F 
ATOM     27  F   UNL     1      27.899   1.407  52.218  1.00  0.00    -0.166 F 
ENDBRANCH  16  24
ENDBRANCH  10  12
ENDBRANCH   1   8
BRANCH   6  28
ATOM     28  N   UNL     1      22.268   6.943  58.924  1.00  0.00    -0.324 N 
ATOM     29  H   UNL     1      21.736   6.284  59.510  1.00  0.00     0.170 HD
BRANCH  28  30
ATOM     30  C   UNL     1      23.325   7.674  59.471  1.00  0.00     0.227 A 
ATOM     31  N   UNL     1      23.574   8.974  59.377  1.00  0.00    -0.221 NA
ATOM     32  N   UNL     1      24.157   6.796  60.088  1.00  0.00    -0.213 NA
ATOM     33  C   UNL     1      24.699   9.419  59.968  1.00  0.00     0.117 A 
ATOM     34  C   UNL     1      25.279   7.281  60.633  1.00  0.00     0.077 A 
ATOM     35  C   UNL     1      25.568   8.599  60.580  1.00  0.00     0.049 A 
BRANCH  34  36
ATOM     36  C   UNL     1      26.138   6.286  61.327  1.00  0.00     0.019 A 
ATOM     37  C   UNL     1      26.495   6.437  62.677  1.00  0.00     0.013 A 
ATOM     38  C   UNL     1      26.633   5.163  60.636  1.00  0.00     0.121 A 
ATOM     39  C   UNL     1      27.321   5.488  63.266  1.00  0.00     0.021 A 
ATOM     40  N   UNL     1      27.436   4.250  61.196  1.00  0.00    -0.264 NA
ATOM     41  C   UNL     1      27.741   4.405  62.495  1.00  0.00     0.111 A 
ENDBRANCH  34  36
ENDBRANCH  28  30
ENDBRANCH   6  28
TORSDOF 7
ENDMDL
MODEL 18
REMARK VINA RESULT:   -10.338      4.411     10.939
REMARK INTER + INTRA:         -13.624
REMARK INTER:                 -12.426
REMARK INTRA:                  -1.197
REMARK CONF_INDEPENDENT:        2.088
REMARK UNBOUND:                -1.197
REMARK SMILES Cc1cn(-c2cc(NC(=O)c3ccc(C)c(Nc4nccc(-c5cccnc5)n4)c3)cc(C(F)(F)F)c2)cn1
REMARK SMILES IDX 11 1 12 2 13 3 14 4 15 5 16 6 30 7 9 8 10 9 8 10 7 12 6 13
REMARK SMILES IDX 31 14 5 15 32 16 37 17 4 18 3 19 38 20 2 21 39 22 1 23 33 24
REMARK SMILES IDX 34 25 35 26 36 27 17 28 18 30 19 31 29 32 20 33 22 34 21 35
REMARK SMILES IDX 23 36 24 37 28 38 25 39 27 40 26 41
REMARK H PARENT 8 11 17 29
ROOT
ATOM      1  C   UNL     1      22.323   6.888  55.603  1.00  0.00     0.042 A 
ATOM      2  C   UNL     1      21.586   8.033  55.268  1.00  0.00     0.014 A 
ATOM      3  C   UNL     1      21.120   8.911  56.248  1.00  0.00     0.006 A 
ATOM      4  C   UNL     1      21.296   8.641  57.596  1.00  0.00    -0.027 A 
ATOM      5  C   UNL     1      20.775   9.604  58.654  1.00  0.00     0.046 C 
ATOM      6  C   UNL     1      21.937   7.452  57.938  1.00  0.00     0.045 A 
ATOM      7  C   UNL     1      22.419   6.597  56.939  1.00  0.00     0.040 A 
ENDROOT
BRANCH   1   8
ATOM      8  C   UNL     1      22.743   5.845  54.647  1.00  0.00     0.255 C 
ATOM      9  O   UNL     1      22.013   4.886  54.572  1.00  0.00    -0.269 OA
ATOM     10  N   UNL     1      23.726   6.181  53.799  1.00  0.00    -0.322 N 
ATOM     11  H   UNL     1      24.155   7.109  53.924  1.00  0.00     0.170 HD
BRANCH  10  12
ATOM     12  C   UNL     1      24.220   5.392  52.768  1.00  0.00     0.044 A 
ATOM     13  C   UNL     1      25.305   4.506  52.986  1.00  0.00     0.052 A 
ATOM     14  C   UNL     1      23.732   5.542  51.451  1.00  0.00     0.039 A 
ATOM     15  C   UNL     1      25.802   3.701  51.957  1.00  0.00     0.049 A 
ATOM     16  C   UNL     1      24.225   4.705  50.410  1.00  0.00     0.060 A 
ATOM     17  C   UNL     1      25.275   3.823  50.675  1.00  0.00     0.039 A 
BRANCH  15  18
ATOM     18  N   UNL     1      26.847   2.790  52.173  1.00  0.00    -0.306 N 
ATOM     19  C   UNL     1      27.856   2.392  51.298  1.00  0.00     0.116 A 
ATOM     20  C   UNL     1      27.039   2.033  53.259  1.00  0.00     0.204 A 
ATOM     21  C   UNL     1      28.588   1.433  51.906  1.00  0.00     0.056 A 
ATOM     22  N   UNL     1      28.081   1.246  53.144  1.00  0.00    -0.242 NA
ATOM     23  C   UNL     1      29.798   0.707  51.368  1.00  0.00     0.068 C 
ENDBRANCH  15  18
BRANCH  16  24
ATOM     24  C   UNL     1      23.648   4.844  49.039  1.00  0.00     0.416 C 
ATOM     25  F   UNL     1      22.592   5.676  48.947  1.00  0.00    -0.166 F 
ATOM     26  F   UNL     1      24.518   5.410  48.210  1.00  0.00    -0.166 F 
ATOM     27  F   UNL     1      23.169   3.676  48.563  1.00  0.00    -0.166 F 
ENDBRANCH  16  24
ENDBRANCH  10  12
ENDBRANCH   1   8
BRANCH   6  28
ATOM     28  N   UNL     1      22.269   7.237  59.282  1.00  0.00    -0.324 N 
ATOM     29  H   UNL     1      21.712   6.590  59.858  1.00  0.00     0.170 HD
BRANCH  28  30
ATOM     30  C   UNL     1      23.362   7.908  59.835  1.00  0.00     0.227 A 
ATOM     31  N   UNL     1      23.626   9.208  59.839  1.00  0.00    -0.221 NA
ATOM     32  N   UNL     1      24.210   6.972  60.334  1.00  0.00    -0.213 NA
ATOM     33  C   UNL     1      24.785   9.589  60.409  1.00  0.00     0.117 A 
ATOM     34  C   UNL     1      25.364   7.397  60.862  1.00  0.00     0.077 A 
ATOM     35  C   UNL     1      25.670   8.711  60.906  1.00  0.00     0.049 A 
BRANCH  34  36
ATOM     36  C   UNL     1      26.241   6.337  61.425  1.00  0.00     0.019 A 
ATOM     37  C   UNL     1      26.401   6.174  62.811  1.00  0.00     0.013 A 
ATOM     38  C   UNL     1      26.953   5.470  60.574  1.00  0.00     0.121 A 
ATOM     39  C   UNL     1      27.253   5.183  63.280  1.00  0.00     0.021 A 
ATOM     40  N   UNL     1      27.782   4.518  61.020  1.00  0.00    -0.264 NA
ATOM     41  C   UNL     1      27.897   4.368  62.350  1.00  0.00     0.111 A 
ENDBRANCH  34  36
ENDBRANCH  28  30
ENDBRANCH   6  28
TORSDOF 7
ENDMDL
MODEL 19
REMARK VINA RESULT:   -10.229      7.188      9.751
REMARK INTER + INTRA:         -13.713
REMARK INTER:                 -12.317
REMARK INTRA:                  -1.396
REMARK CONF_INDEPENDENT:        2.088
REMARK UNBOUND:                -1.396
REMARK SMILES Cc1cn(-c2cc(NC(=O)c3ccc(C)c(Nc4nccc(-c5cccnc5)n4)c3)cc(C(F)(F)F)c2)cn1
REMARK SMILES IDX 11 1 12 2 13 3 14 4 15 5 16 6 30 7 9 8 10 9 8 10 7 12 6 13
REMARK SMILES IDX 31 14 5 15 32 16 37 17 4 18 3 19 38 20 2 21 39 22 1 23 33 24
REMARK SMILES IDX 34 25 35 26 36 27 17 28 18 30 19 31 29 32 20 33 22 34 21 35
REMARK SMILES IDX 23 36 24 37 28 38 25 39 27 40 26 41
REMARK H PARENT 8 11 17 29
ROOT
ATOM      1  C   UNL     1      32.060   3.023  55.164  1.00  0.00     0.042 A 
ATOM      2  C   UNL     1      33.161   3.324  54.349  1.00  0.00     0.014 A 
ATOM      3  C   UNL     1      33.567   2.462  53.328  1.00  0.00     0.006 A 
ATOM      4  C   UNL     1      32.949   1.237  53.135  1.00  0.00    -0.027 A 
ATOM      5  C   UNL     1      33.406   0.303  52.023  1.00  0.00     0.046 C 
ATOM      6  C   UNL     1      31.921   0.887  54.009  1.00  0.00     0.045 A 
ATOM      7  C   UNL     1      31.512   1.776  55.011  1.00  0.00     0.040 A 
ENDROOT
BRANCH   1   8
ATOM      8  C   UNL     1      31.642   3.811  56.341  1.00  0.00     0.255 C 
ATOM      9  O   UNL     1      30.525   4.264  56.291  1.00  0.00    -0.269 OA
ATOM     10  N   UNL     1      32.434   3.726  57.421  1.00  0.00    -0.322 N 
ATOM     11  H   UNL     1      33.299   3.177  57.324  1.00  0.00     0.170 HD
BRANCH  10  12
ATOM     12  C   UNL     1      32.193   4.312  58.657  1.00  0.00     0.044 A 
ATOM     13  C   UNL     1      31.853   5.684  58.758  1.00  0.00     0.052 A 
ATOM     14  C   UNL     1      32.399   3.584  59.849  1.00  0.00     0.039 A 
ATOM     15  C   UNL     1      31.599   6.281  59.996  1.00  0.00     0.049 A 
ATOM     16  C   UNL     1      32.118   4.187  61.108  1.00  0.00     0.060 A 
ATOM     17  C   UNL     1      31.756   5.535  61.160  1.00  0.00     0.039 A 
BRANCH  15  18
ATOM     18  N   UNL     1      31.221   7.627  60.103  1.00  0.00    -0.306 N 
ATOM     19  C   UNL     1      29.972   8.207  59.883  1.00  0.00     0.116 A 
ATOM     20  C   UNL     1      32.024   8.667  60.356  1.00  0.00     0.204 A 
ATOM     21  C   UNL     1      30.098   9.545  60.020  1.00  0.00     0.056 A 
ATOM     22  N   UNL     1      31.382   9.810  60.348  1.00  0.00    -0.242 NA
ATOM     23  C   UNL     1      29.022  10.596  59.895  1.00  0.00     0.068 C 
ENDBRANCH  15  18
BRANCH  16  24
ATOM     24  C   UNL     1      32.287   3.375  62.351  1.00  0.00     0.416 C 
ATOM     25  F   UNL     1      31.868   2.097  62.258  1.00  0.00    -0.166 F 
ATOM     26  F   UNL     1      33.572   3.222  62.650  1.00  0.00    -0.166 F 
ATOM     27  F   UNL     1      31.572   3.864  63.385  1.00  0.00    -0.166 F 
ENDBRANCH  16  24
ENDBRANCH  10  12
ENDBRANCH   1   8
BRANCH   6  28
ATOM     28  N   UNL     1      31.177  -0.268  53.734  1.00  0.00    -0.324 N 
ATOM     29  H   UNL     1      31.616  -1.068  53.258  1.00  0.00     0.170 HD
BRANCH  28  30
ATOM     30  C   UNL     1      29.834  -0.325  54.112  1.00  0.00     0.227 A 
ATOM     31  N   UNL     1      29.227  -1.203  54.901  1.00  0.00    -0.221 NA
ATOM     32  N   UNL     1      29.178   0.664  53.452  1.00  0.00    -0.213 NA
ATOM     33  C   UNL     1      27.899  -1.053  55.066  1.00  0.00     0.117 A 
ATOM     34  C   UNL     1      27.854   0.753  53.622  1.00  0.00     0.077 A 
ATOM     35  C   UNL     1      27.194  -0.105  54.430  1.00  0.00     0.049 A 
BRANCH  34  36
ATOM     36  C   UNL     1      27.188   1.873  52.907  1.00  0.00     0.019 A 
ATOM     37  C   UNL     1      26.123   2.584  53.482  1.00  0.00     0.013 A 
ATOM     38  C   UNL     1      27.605   2.244  51.613  1.00  0.00     0.121 A 
ATOM     39  C   UNL     1      25.523   3.605  52.756  1.00  0.00     0.021 A 
ATOM     40  N   UNL     1      27.025   3.222  50.905  1.00  0.00    -0.264 NA
ATOM     41  C   UNL     1      26.025   3.902  51.490  1.00  0.00     0.111 A 
ENDBRANCH  34  36
ENDBRANCH  28  30
ENDBRANCH   6  28
TORSDOF 7
ENDMDL
MODEL 20
REMARK VINA RESULT:    -9.695      4.139     10.515
REMARK INTER + INTRA:         -13.676
REMARK INTER:                 -11.783
REMARK INTRA:                  -1.893
REMARK CONF_INDEPENDENT:        2.088
REMARK UNBOUND:                -1.893
REMARK SMILES Cc1cn(-c2cc(NC(=O)c3ccc(C)c(Nc4nccc(-c5cccnc5)n4)c3)cc(C(F)(F)F)c2)cn1
REMARK SMILES IDX 11 1 12 2 13 3 14 4 15 5 16 6 30 7 9 8 10 9 8 10 7 12 6 13
REMARK SMILES IDX 31 14 5 15 32 16 37 17 4 18 3 19 38 20 2 21 39 22 1 23 33 24
REMARK SMILES IDX 34 25 35 26 36 27 17 28 18 30 19 31 29 32 20 33 22 34 21 35
REMARK SMILES IDX 23 36 24 37 28 38 25 39 27 40 26 41
REMARK H PARENT 8 11 17 29
ROOT
ATOM      1  C   UNL     1      21.655   6.791  54.114  1.00  0.00     0.042 A 
ATOM      2  C   UNL     1      21.148   7.994  53.600  1.00  0.00     0.014 A 
ATOM      3  C   UNL     1      20.479   8.908  54.415  1.00  0.00     0.006 A 
ATOM      4  C   UNL     1      20.216   8.625  55.746  1.00  0.00    -0.027 A 
ATOM      5  C   UNL     1      19.478   9.628  56.622  1.00  0.00     0.046 C 
ATOM      6  C   UNL     1      20.626   7.387  56.237  1.00  0.00     0.045 A 
ATOM      7  C   UNL     1      21.319   6.494  55.409  1.00  0.00     0.040 A 
ENDROOT
BRANCH   1   8
ATOM      8  C   UNL     1      22.261   5.716  53.303  1.00  0.00     0.255 C 
ATOM      9  O   UNL     1      21.529   4.795  53.035  1.00  0.00    -0.269 OA
ATOM     10  N   UNL     1      23.451   5.991  52.750  1.00  0.00    -0.322 N 
ATOM     11  H   UNL     1      23.878   6.898  52.986  1.00  0.00     0.170 HD
BRANCH  10  12
ATOM     12  C   UNL     1      24.161   5.165  51.888  1.00  0.00     0.044 A 
ATOM     13  C   UNL     1      25.296   4.446  52.339  1.00  0.00     0.052 A 
ATOM     14  C   UNL     1      23.840   5.116  50.513  1.00  0.00     0.039 A 
ATOM     15  C   UNL     1      26.010   3.605  51.481  1.00  0.00     0.049 A 
ATOM     16  C   UNL     1      24.555   4.241  49.647  1.00  0.00     0.060 A 
ATOM     17  C   UNL     1      25.649   3.528  50.140  1.00  0.00     0.039 A 
BRANCH  15  18
ATOM     18  N   UNL     1      27.109   2.857  51.929  1.00  0.00    -0.306 N 
ATOM     19  C   UNL     1      27.428   2.459  53.225  1.00  0.00     0.116 A 
ATOM     20  C   UNL     1      28.148   2.442  51.194  1.00  0.00     0.204 A 
ATOM     21  C   UNL     1      28.624   1.831  53.192  1.00  0.00     0.056 A 
ATOM     22  N   UNL     1      29.042   1.802  51.907  1.00  0.00    -0.242 NA
ATOM     23  C   UNL     1      29.377   1.206  54.341  1.00  0.00     0.068 C 
ENDBRANCH  15  18
BRANCH  16  24
ATOM     24  C   UNL     1      24.155   4.165  48.209  1.00  0.00     0.416 C 
ATOM     25  F   UNL     1      22.827   4.215  47.984  1.00  0.00    -0.166 F 
ATOM     26  F   UNL     1      24.588   5.224  47.536  1.00  0.00    -0.166 F 
ATOM     27  F   UNL     1      24.526   3.002  47.634  1.00  0.00    -0.166 F 
ENDBRANCH  16  24
ENDBRANCH  10  12
ENDBRANCH   1   8
BRANCH   6  28
ATOM     28  N   UNL     1      20.517   7.145  57.613  1.00  0.00    -0.324 N 
ATOM     29  H   UNL     1      19.641   6.777  58.008  1.00  0.00     0.170 HD
BRANCH  28  30
ATOM     30  C   UNL     1      21.608   7.408  58.444  1.00  0.00     0.227 A 
ATOM     31  N   UNL     1      21.615   7.886  59.682  1.00  0.00    -0.221 NA
ATOM     32  N   UNL     1      22.738   7.159  57.733  1.00  0.00    -0.213 NA
ATOM     33  C   UNL     1      22.821   8.088  60.246  1.00  0.00     0.117 A 
ATOM     34  C   UNL     1      23.912   7.405  58.324  1.00  0.00     0.077 A 
ATOM     35  C   UNL     1      23.972   7.876  59.589  1.00  0.00     0.049 A 
BRANCH  34  36
ATOM     36  C   UNL     1      25.118   7.084  57.517  1.00  0.00     0.019 A 
ATOM     37  C   UNL     1      25.048   6.917  56.125  1.00  0.00     0.013 A 
ATOM     38  C   UNL     1      26.372   6.923  58.138  1.00  0.00     0.121 A 
ATOM     39  C   UNL     1      26.203   6.592  55.425  1.00  0.00     0.021 A 
ATOM     40  N   UNL     1      27.488   6.602  57.470  1.00  0.00    -0.264 NA
ATOM     41  C   UNL     1      27.397   6.473  56.136  1.00  0.00     0.111 A 
ENDBRANCH  34  36
ENDBRANCH  28  30
ENDBRANCH   6  28
TORSDOF 7
ENDMDL
