MODEL 1
REMARK VINA RESULT:   -15.147      0.000      0.000
REMARK INTER + INTRA:         -18.419
REMARK INTER:                 -17.235
REMARK INTRA:                  -1.184
REMARK CONF_INDEPENDENT:        2.088
REMARK UNBOUND:                -1.184
REMARK SMILES Cc1cn(-c2cc(NC(=O)c3ccc(C)c(Nc4nccc(-c5cccnc5)n4)c3)cc(C(F)(F)F)c2)cn1
REMARK SMILES IDX 11 1 12 2 13 3 14 4 15 5 16 6 30 7 9 8 10 9 8 10 7 12 6 13
REMARK SMILES IDX 31 14 5 15 32 16 37 17 4 18 3 19 38 20 2 21 39 22 1 23 33 24
REMARK SMILES IDX 34 25 35 26 36 27 17 28 18 30 19 31 29 32 20 33 22 34 21 35
REMARK SMILES IDX 23 36 24 37 28 38 25 39 27 40 26 41
REMARK H PARENT 8 11 17 29
ROOT
ATOM      1  C   UNL     1      27.983   1.873  53.231  1.00  0.00     0.042 A 
ATOM      2  C   UNL     1      27.703   1.359  54.506  1.00  0.00     0.014 A 
ATOM      3  C   UNL     1      28.422   0.284  55.030  1.00  0.00     0.006 A 
ATOM      4  C   UNL     1      29.384  -0.372  54.278  1.00  0.00    -0.027 A 
ATOM      5  C   UNL     1      30.155  -1.548  54.860  1.00  0.00     0.046 C 
ATOM      6  C   UNL     1      29.594   0.068  52.972  1.00  0.00     0.045 A 
ATOM      7  C   UNL     1      28.879   1.165  52.474  1.00  0.00     0.040 A 
ENDROOT
BRANCH   1   8
ATOM      8  C   UNL     1      27.193   2.919  52.551  1.00  0.00     0.255 C 
ATOM      9  O   UNL     1      27.552   3.195  51.432  1.00  0.00    -0.269 OA
ATOM     10  N   UNL     1      26.035   3.259  53.136  1.00  0.00    -0.322 N 
ATOM     11  H   UNL     1      25.820   2.817  54.041  1.00  0.00     0.170 HD
BRANCH  10  12
ATOM     12  C   UNL     1      25.099   4.154  52.633  1.00  0.00     0.044 A 
ATOM     13  C   UNL     1      24.174   4.799  53.491  1.00  0.00     0.052 A 
ATOM     14  C   UNL     1      24.968   4.349  51.240  1.00  0.00     0.039 A 
ATOM     15  C   UNL     1      23.235   5.708  52.996  1.00  0.00     0.049 A 
ATOM     16  C   UNL     1      24.026   5.293  50.739  1.00  0.00     0.060 A 
ATOM     17  C   UNL     1      23.154   5.929  51.625  1.00  0.00     0.039 A 
BRANCH  15  18
ATOM     18  N   UNL     1      22.343   6.383  53.842  1.00  0.00    -0.306 N 
ATOM     19  C   UNL     1      22.032   6.120  55.175  1.00  0.00     0.116 A 
ATOM     20  C   UNL     1      21.523   7.385  53.507  1.00  0.00     0.204 A 
ATOM     21  C   UNL     1      21.057   6.973  55.557  1.00  0.00     0.056 A 
ATOM     22  N   UNL     1      20.776   7.779  54.509  1.00  0.00    -0.242 NA
ATOM     23  C   UNL     1      20.403   7.089  56.913  1.00  0.00     0.068 C 
ENDBRANCH  15  18
BRANCH  16  24
ATOM     24  C   UNL     1      23.951   5.524  49.265  1.00  0.00     0.416 C 
ATOM     25  F   UNL     1      24.681   6.564  48.814  1.00  0.00    -0.166 F 
ATOM     26  F   UNL     1      24.479   4.506  48.595  1.00  0.00    -0.166 F 
ATOM     27  F   UNL     1      22.700   5.818  48.855  1.00  0.00    -0.166 F 
ENDBRANCH  16  24
ENDBRANCH  10  12
ENDBRANCH   1   8
BRANCH   6  28
ATOM     28  N   UNL     1      30.668  -0.470  52.252  1.00  0.00    -0.324 N 
ATOM     29  H   UNL     1      30.525  -1.283  51.636  1.00  0.00     0.170 HD
BRANCH  28  30
ATOM     30  C   UNL     1      31.935   0.104  52.377  1.00  0.00     0.227 A 
ATOM     31  N   UNL     1      32.333   1.074  53.190  1.00  0.00    -0.221 NA
ATOM     32  N   UNL     1      32.735  -0.455  51.432  1.00  0.00    -0.213 NA
ATOM     33  C   UNL     1      33.613   1.475  53.074  1.00  0.00     0.117 A 
ATOM     34  C   UNL     1      33.990  -0.001  51.333  1.00  0.00     0.077 A 
ATOM     35  C   UNL     1      34.447   0.972  52.150  1.00  0.00     0.049 A 
BRANCH  34  36
ATOM     36  C   UNL     1      34.835  -0.669  50.308  1.00  0.00     0.019 A 
ATOM     37  C   UNL     1      36.129  -0.212  50.011  1.00  0.00     0.013 A 
ATOM     38  C   UNL     1      34.347  -1.779  49.592  1.00  0.00     0.121 A 
ATOM     39  C   UNL     1      36.863  -0.860  49.026  1.00  0.00     0.021 A 
ATOM     40  N   UNL     1      35.047  -2.402  48.635  1.00  0.00    -0.264 NA
ATOM     41  C   UNL     1      36.291  -1.961  48.390  1.00  0.00     0.111 A 
ENDBRANCH  34  36
ENDBRANCH  28  30
ENDBRANCH   6  28
TORSDOF 7
ENDMDL
MODEL 2
REMARK VINA RESULT:   -13.404      2.335      3.676
REMARK INTER + INTRA:         -16.737
REMARK INTER:                 -15.492
REMARK INTRA:                  -1.244
REMARK CONF_INDEPENDENT:        2.088
REMARK UNBOUND:                -1.244
REMARK SMILES Cc1cn(-c2cc(NC(=O)c3ccc(C)c(Nc4nccc(-c5cccnc5)n4)c3)cc(C(F)(F)F)c2)cn1
REMARK SMILES IDX 11 1 12 2 13 3 14 4 15 5 16 6 30 7 9 8 10 9 8 10 7 12 6 13
REMARK SMILES IDX 31 14 5 15 32 16 37 17 4 18 3 19 38 20 2 21 39 22 1 23 33 24
REMARK SMILES IDX 34 25 35 26 36 27 17 28 18 30 19 31 29 32 20 33 22 34 21 35
REMARK SMILES IDX 23 36 24 37 28 38 25 39 27 40 26 41
REMARK H PARENT 8 11 17 29
ROOT
ATOM      1  C   UNL     1      28.272   1.592  53.415  1.00  0.00     0.042 A 
ATOM      2  C   UNL     1      27.987   0.931  54.620  1.00  0.00     0.014 A 
ATOM      3  C   UNL     1      28.699  -0.203  55.013  1.00  0.00     0.006 A 
ATOM      4  C   UNL     1      29.659  -0.770  54.190  1.00  0.00    -0.027 A 
ATOM      5  C   UNL     1      30.422  -2.011  54.628  1.00  0.00     0.046 C 
ATOM      6  C   UNL     1      29.874  -0.178  52.946  1.00  0.00     0.045 A 
ATOM      7  C   UNL     1      29.167   0.974  52.581  1.00  0.00     0.040 A 
ENDROOT
BRANCH   1   8
ATOM      8  C   UNL     1      27.490   2.716  52.864  1.00  0.00     0.255 C 
ATOM      9  O   UNL     1      27.827   3.094  51.768  1.00  0.00    -0.269 OA
ATOM     10  N   UNL     1      26.355   3.021  53.512  1.00  0.00    -0.322 N 
ATOM     11  H   UNL     1      26.154   2.496  54.374  1.00  0.00     0.170 HD
BRANCH  10  12
ATOM     12  C   UNL     1      25.428   3.980  53.125  1.00  0.00     0.044 A 
ATOM     13  C   UNL     1      25.085   4.152  51.761  1.00  0.00     0.052 A 
ATOM     14  C   UNL     1      24.896   4.885  54.069  1.00  0.00     0.039 A 
ATOM     15  C   UNL     1      24.146   5.108  51.364  1.00  0.00     0.049 A 
ATOM     16  C   UNL     1      23.922   5.843  53.665  1.00  0.00     0.060 A 
ATOM     17  C   UNL     1      23.591   5.959  52.313  1.00  0.00     0.039 A 
BRANCH  15  18
ATOM     18  N   UNL     1      23.769   5.258  50.021  1.00  0.00    -0.306 N 
ATOM     19  C   UNL     1      22.526   5.603  49.493  1.00  0.00     0.116 A 
ATOM     20  C   UNL     1      24.522   5.003  48.944  1.00  0.00     0.204 A 
ATOM     21  C   UNL     1      22.607   5.542  48.146  1.00  0.00     0.056 A 
ATOM     22  N   UNL     1      23.872   5.197  47.822  1.00  0.00    -0.242 NA
ATOM     23  C   UNL     1      21.527   5.847  47.136  1.00  0.00     0.068 C 
ENDBRANCH  15  18
BRANCH  16  24
ATOM     24  C   UNL     1      23.331   6.749  54.696  1.00  0.00     0.416 C 
ATOM     25  F   UNL     1      22.114   6.383  55.146  1.00  0.00    -0.166 F 
ATOM     26  F   UNL     1      24.051   6.737  55.811  1.00  0.00    -0.166 F 
ATOM     27  F   UNL     1      23.129   7.998  54.226  1.00  0.00    -0.166 F 
ENDBRANCH  16  24
ENDBRANCH  10  12
ENDBRANCH   1   8
BRANCH   6  28
ATOM     28  N   UNL     1      30.947  -0.633  52.168  1.00  0.00    -0.324 N 
ATOM     29  H   UNL     1      30.814  -1.403  51.498  1.00  0.00     0.170 HD
BRANCH  28  30
ATOM     30  C   UNL     1      32.200  -0.032  52.309  1.00  0.00     0.227 A 
ATOM     31  N   UNL     1      32.580   0.911  53.162  1.00  0.00    -0.221 NA
ATOM     32  N   UNL     1      33.007  -0.530  51.337  1.00  0.00    -0.213 NA
ATOM     33  C   UNL     1      33.849   1.349  53.054  1.00  0.00     0.117 A 
ATOM     34  C   UNL     1      34.249  -0.041  51.249  1.00  0.00     0.077 A 
ATOM     35  C   UNL     1      34.689   0.907  52.105  1.00  0.00     0.049 A 
BRANCH  34  36
ATOM     36  C   UNL     1      35.103  -0.642  50.192  1.00  0.00     0.019 A 
ATOM     37  C   UNL     1      34.856  -1.930  49.691  1.00  0.00     0.013 A 
ATOM     38  C   UNL     1      36.203   0.068  49.670  1.00  0.00     0.121 A 
ATOM     39  C   UNL     1      35.702  -2.451  48.720  1.00  0.00     0.021 A 
ATOM     40  N   UNL     1      37.027  -0.432  48.741  1.00  0.00    -0.264 NA
ATOM     41  C   UNL     1      36.752  -1.656  48.261  1.00  0.00     0.111 A 
ENDBRANCH  34  36
ENDBRANCH  28  30
ENDBRANCH   6  28
TORSDOF 7
ENDMDL
MODEL 3
REMARK VINA RESULT:   -12.569      1.511      3.588
REMARK INTER + INTRA:         -16.230
REMARK INTER:                 -14.657
REMARK INTRA:                  -1.573
REMARK CONF_INDEPENDENT:        2.088
REMARK UNBOUND:                -1.573
REMARK SMILES Cc1cn(-c2cc(NC(=O)c3ccc(C)c(Nc4nccc(-c5cccnc5)n4)c3)cc(C(F)(F)F)c2)cn1
REMARK SMILES IDX 11 1 12 2 13 3 14 4 15 5 16 6 30 7 9 8 10 9 8 10 7 12 6 13
REMARK SMILES IDX 31 14 5 15 32 16 37 17 4 18 3 19 38 20 2 21 39 22 1 23 33 24
REMARK SMILES IDX 34 25 35 26 36 27 17 28 18 30 19 31 29 32 20 33 22 34 21 35
REMARK SMILES IDX 23 36 24 37 28 38 25 39 27 40 26 41
REMARK H PARENT 8 11 17 29
ROOT
ATOM      1  C   UNL     1      27.709   1.744  52.994  1.00  0.00     0.042 A 
ATOM      2  C   UNL     1      27.372   1.164  54.226  1.00  0.00     0.014 A 
ATOM      3  C   UNL     1      28.051   0.046  54.713  1.00  0.00     0.006 A 
ATOM      4  C   UNL     1      29.028  -0.586  53.960  1.00  0.00    -0.027 A 
ATOM      5  C   UNL     1      29.754  -1.809  54.500  1.00  0.00     0.046 C 
ATOM      6  C   UNL     1      29.295  -0.076  52.690  1.00  0.00     0.045 A 
ATOM      7  C   UNL     1      28.621   1.062  52.231  1.00  0.00     0.040 A 
ENDROOT
BRANCH   1   8
ATOM      8  C   UNL     1      26.965   2.844  52.348  1.00  0.00     0.255 C 
ATOM      9  O   UNL     1      27.300   3.102  51.218  1.00  0.00    -0.269 OA
ATOM     10  N   UNL     1      25.854   3.256  52.977  1.00  0.00    -0.322 N 
ATOM     11  H   UNL     1      25.645   2.824  53.888  1.00  0.00     0.170 HD
BRANCH  10  12
ATOM     12  C   UNL     1      24.961   4.213  52.512  1.00  0.00     0.044 A 
ATOM     13  C   UNL     1      24.068   4.865  53.398  1.00  0.00     0.052 A 
ATOM     14  C   UNL     1      24.840   4.470  51.129  1.00  0.00     0.039 A 
ATOM     15  C   UNL     1      23.173   5.837  52.942  1.00  0.00     0.049 A 
ATOM     16  C   UNL     1      23.943   5.476  50.669  1.00  0.00     0.060 A 
ATOM     17  C   UNL     1      23.101   6.117  51.581  1.00  0.00     0.039 A 
BRANCH  15  18
ATOM     18  N   UNL     1      22.314   6.518  53.817  1.00  0.00    -0.306 N 
ATOM     19  C   UNL     1      22.036   6.251  55.157  1.00  0.00     0.116 A 
ATOM     20  C   UNL     1      21.498   7.534  53.510  1.00  0.00     0.204 A 
ATOM     21  C   UNL     1      21.084   7.115  55.571  1.00  0.00     0.056 A 
ATOM     22  N   UNL     1      20.784   7.930  54.536  1.00  0.00    -0.242 NA
ATOM     23  C   UNL     1      20.470   7.231  56.945  1.00  0.00     0.068 C 
ENDBRANCH  15  18
BRANCH  16  24
ATOM     24  C   UNL     1      23.878   5.770  49.205  1.00  0.00     0.416 C 
ATOM     25  F   UNL     1      23.971   4.691  48.403  1.00  0.00    -0.166 F 
ATOM     26  F   UNL     1      22.690   6.260  48.869  1.00  0.00    -0.166 F 
ATOM     27  F   UNL     1      24.895   6.555  48.794  1.00  0.00    -0.166 F 
ENDBRANCH  16  24
ENDBRANCH  10  12
ENDBRANCH   1   8
BRANCH   6  28
ATOM     28  N   UNL     1      30.385  -0.594  51.980  1.00  0.00    -0.324 N 
ATOM     29  H   UNL     1      30.259  -1.395  51.345  1.00  0.00     0.170 HD
BRANCH  28  30
ATOM     30  C   UNL     1      31.646  -0.015  52.139  1.00  0.00     0.227 A 
ATOM     31  N   UNL     1      32.781  -0.309  51.518  1.00  0.00    -0.221 NA
ATOM     32  N   UNL     1      31.557   0.899  53.139  1.00  0.00    -0.213 NA
ATOM     33  C   UNL     1      33.875   0.380  51.896  1.00  0.00     0.117 A 
ATOM     34  C   UNL     1      32.676   1.535  53.502  1.00  0.00     0.077 A 
ATOM     35  C   UNL     1      33.852   1.284  52.888  1.00  0.00     0.049 A 
BRANCH  34  36
ATOM     36  C   UNL     1      32.519   2.550  54.576  1.00  0.00     0.019 A 
ATOM     37  C   UNL     1      33.425   3.613  54.723  1.00  0.00     0.013 A 
ATOM     38  C   UNL     1      31.453   2.461  55.493  1.00  0.00     0.121 A 
ATOM     39  C   UNL     1      33.242   4.517  55.762  1.00  0.00     0.021 A 
ATOM     40  N   UNL     1      31.276   3.325  56.501  1.00  0.00    -0.264 NA
ATOM     41  C   UNL     1      32.143   4.346  56.603  1.00  0.00     0.111 A 
ENDBRANCH  34  36
ENDBRANCH  28  30
ENDBRANCH   6  28
TORSDOF 7
ENDMDL
MODEL 4
REMARK VINA RESULT:   -11.567      1.589      2.028
REMARK INTER + INTRA:         -15.073
REMARK INTER:                 -13.656
REMARK INTRA:                  -1.417
REMARK CONF_INDEPENDENT:        2.088
REMARK UNBOUND:                -1.417
REMARK SMILES Cc1cn(-c2cc(NC(=O)c3ccc(C)c(Nc4nccc(-c5cccnc5)n4)c3)cc(C(F)(F)F)c2)cn1
REMARK SMILES IDX 11 1 12 2 13 3 14 4 15 5 16 6 30 7 9 8 10 9 8 10 7 12 6 13
REMARK SMILES IDX 31 14 5 15 32 16 37 17 4 18 3 19 38 20 2 21 39 22 1 23 33 24
REMARK SMILES IDX 34 25 35 26 36 27 17 28 18 30 19 31 29 32 20 33 22 34 21 35
REMARK SMILES IDX 23 36 24 37 28 38 25 39 27 40 26 41
REMARK H PARENT 8 11 17 29
ROOT
ATOM      1  C   UNL     1      27.737   1.755  53.494  1.00  0.00     0.042 A 
ATOM      2  C   UNL     1      27.094   0.526  53.703  1.00  0.00     0.014 A 
ATOM      3  C   UNL     1      27.743  -0.536  54.334  1.00  0.00     0.006 A 
ATOM      4  C   UNL     1      29.075  -0.446  54.705  1.00  0.00    -0.027 A 
ATOM      5  C   UNL     1      29.773  -1.614  55.386  1.00  0.00     0.046 C 
ATOM      6  C   UNL     1      29.750   0.737  54.406  1.00  0.00     0.045 A 
ATOM      7  C   UNL     1      29.073   1.800  53.794  1.00  0.00     0.040 A 
ENDROOT
BRANCH   1   8
ATOM      8  C   UNL     1      27.172   2.882  52.726  1.00  0.00     0.255 C 
ATOM      9  O   UNL     1      27.810   3.222  51.759  1.00  0.00    -0.269 OA
ATOM     10  N   UNL     1      25.913   3.232  53.028  1.00  0.00    -0.322 N 
ATOM     11  H   UNL     1      25.465   2.736  53.811  1.00  0.00     0.170 HD
BRANCH  10  12
ATOM     12  C   UNL     1      25.158   4.203  52.381  1.00  0.00     0.044 A 
ATOM     13  C   UNL     1      24.527   5.240  53.112  1.00  0.00     0.052 A 
ATOM     14  C   UNL     1      24.904   4.109  50.995  1.00  0.00     0.039 A 
ATOM     15  C   UNL     1      23.774   6.226  52.469  1.00  0.00     0.049 A 
ATOM     16  C   UNL     1      24.155   5.127  50.339  1.00  0.00     0.060 A 
ATOM     17  C   UNL     1      23.575   6.149  51.095  1.00  0.00     0.039 A 
BRANCH  15  18
ATOM     18  N   UNL     1      23.181   7.281  53.179  1.00  0.00    -0.306 N 
ATOM     19  C   UNL     1      22.617   8.458  52.690  1.00  0.00     0.116 A 
ATOM     20  C   UNL     1      23.116   7.415  54.509  1.00  0.00     0.204 A 
ATOM     21  C   UNL     1      22.246   9.218  53.743  1.00  0.00     0.056 A 
ATOM     22  N   UNL     1      22.537   8.534  54.872  1.00  0.00    -0.242 NA
ATOM     23  C   UNL     1      21.575  10.570  53.722  1.00  0.00     0.068 C 
ENDBRANCH  15  18
BRANCH  16  24
ATOM     24  C   UNL     1      23.951   5.035  48.862  1.00  0.00     0.416 C 
ATOM     25  F   UNL     1      24.988   4.513  48.176  1.00  0.00    -0.166 F 
ATOM     26  F   UNL     1      22.972   4.188  48.567  1.00  0.00    -0.166 F 
ATOM     27  F   UNL     1      23.776   6.245  48.292  1.00  0.00    -0.166 F 
ENDBRANCH  16  24
ENDBRANCH  10  12
ENDBRANCH   1   8
BRANCH   6  28
ATOM     28  N   UNL     1      31.044   0.913  54.913  1.00  0.00    -0.324 N 
ATOM     29  H   UNL     1      31.217   0.851  55.927  1.00  0.00     0.170 HD
BRANCH  28  30
ATOM     30  C   UNL     1      32.097   1.173  54.034  1.00  0.00     0.227 A 
ATOM     31  N   UNL     1      33.014   2.130  54.094  1.00  0.00    -0.221 NA
ATOM     32  N   UNL     1      31.997   0.297  53.002  1.00  0.00    -0.213 NA
ATOM     33  C   UNL     1      33.900   2.184  53.081  1.00  0.00     0.117 A 
ATOM     34  C   UNL     1      32.881   0.409  52.003  1.00  0.00     0.077 A 
ATOM     35  C   UNL     1      33.844   1.355  52.026  1.00  0.00     0.049 A 
BRANCH  34  36
ATOM     36  C   UNL     1      32.751  -0.595  50.915  1.00  0.00     0.019 A 
ATOM     37  C   UNL     1      33.862  -1.309  50.438  1.00  0.00     0.013 A 
ATOM     38  C   UNL     1      31.500  -0.847  50.319  1.00  0.00     0.121 A 
ATOM     39  C   UNL     1      33.686  -2.217  49.401  1.00  0.00     0.021 A 
ATOM     40  N   UNL     1      31.326  -1.715  49.314  1.00  0.00    -0.264 NA
ATOM     41  C   UNL     1      32.400  -2.403  48.895  1.00  0.00     0.111 A 
ENDBRANCH  34  36
ENDBRANCH  28  30
ENDBRANCH   6  28
TORSDOF 7
ENDMDL
MODEL 5
REMARK VINA RESULT:   -11.561      4.186     11.152
REMARK INTER + INTRA:         -14.841
REMARK INTER:                 -13.649
REMARK INTRA:                  -1.192
REMARK CONF_INDEPENDENT:        2.088
REMARK UNBOUND:                -1.192
REMARK SMILES Cc1cn(-c2cc(NC(=O)c3ccc(C)c(Nc4nccc(-c5cccnc5)n4)c3)cc(C(F)(F)F)c2)cn1
REMARK SMILES IDX 11 1 12 2 13 3 14 4 15 5 16 6 30 7 9 8 10 9 8 10 7 12 6 13
REMARK SMILES IDX 31 14 5 15 32 16 37 17 4 18 3 19 38 20 2 21 39 22 1 23 33 24
REMARK SMILES IDX 34 25 35 26 36 27 17 28 18 30 19 31 29 32 20 33 22 34 21 35
REMARK SMILES IDX 23 36 24 37 28 38 25 39 27 40 26 41
REMARK H PARENT 8 11 17 29
ROOT
ATOM      1  C   UNL     1      25.878   3.880  52.069  1.00  0.00     0.042 A 
ATOM      2  C   UNL     1      25.263   4.370  50.907  1.00  0.00     0.014 A 
ATOM      3  C   UNL     1      24.151   5.211  50.971  1.00  0.00     0.006 A 
ATOM      4  C   UNL     1      23.560   5.528  52.184  1.00  0.00    -0.027 A 
ATOM      5  C   UNL     1      22.343   6.440  52.239  1.00  0.00     0.046 C 
ATOM      6  C   UNL     1      24.104   4.961  53.335  1.00  0.00     0.045 A 
ATOM      7  C   UNL     1      25.235   4.140  53.251  1.00  0.00     0.040 A 
ENDROOT
BRANCH   1   8
ATOM      8  C   UNL     1      26.972   2.890  52.091  1.00  0.00     0.255 C 
ATOM      9  O   UNL     1      27.653   2.847  51.095  1.00  0.00    -0.269 OA
ATOM     10  N   UNL     1      27.246   2.337  53.282  1.00  0.00    -0.322 N 
ATOM     11  H   UNL     1      26.633   2.594  54.069  1.00  0.00     0.170 HD
BRANCH  10  12
ATOM     12  C   UNL     1      28.280   1.450  53.552  1.00  0.00     0.044 A 
ATOM     13  C   UNL     1      29.587   1.684  53.056  1.00  0.00     0.052 A 
ATOM     14  C   UNL     1      28.026   0.234  54.223  1.00  0.00     0.039 A 
ATOM     15  C   UNL     1      30.636   0.802  53.330  1.00  0.00     0.049 A 
ATOM     16  C   UNL     1      29.101  -0.652  54.520  1.00  0.00     0.060 A 
ATOM     17  C   UNL     1      30.381  -0.368  54.038  1.00  0.00     0.039 A 
BRANCH  15  18
ATOM     18  N   UNL     1      31.942   1.046  52.879  1.00  0.00    -0.306 N 
ATOM     19  C   UNL     1      32.571   0.584  51.724  1.00  0.00     0.116 A 
ATOM     20  C   UNL     1      32.902   1.715  53.529  1.00  0.00     0.204 A 
ATOM     21  C   UNL     1      33.855   1.002  51.747  1.00  0.00     0.056 A 
ATOM     22  N   UNL     1      34.033   1.736  52.868  1.00  0.00    -0.242 NA
ATOM     23  C   UNL     1      34.926   0.770  50.709  1.00  0.00     0.068 C 
ENDBRANCH  15  18
BRANCH  16  24
ATOM     24  C   UNL     1      28.814  -1.903  55.285  1.00  0.00     0.416 C 
ATOM     25  F   UNL     1      27.918  -2.730  54.709  1.00  0.00    -0.166 F 
ATOM     26  F   UNL     1      29.892  -2.675  55.360  1.00  0.00    -0.166 F 
ATOM     27  F   UNL     1      28.275  -1.652  56.496  1.00  0.00    -0.166 F 
ENDBRANCH  16  24
ENDBRANCH  10  12
ENDBRANCH   1   8
BRANCH   6  28
ATOM     28  N   UNL     1      23.628   5.393  54.580  1.00  0.00    -0.324 N 
ATOM     29  H   UNL     1      22.895   4.860  55.070  1.00  0.00     0.170 HD
BRANCH  28  30
ATOM     30  C   UNL     1      24.154   6.554  55.151  1.00  0.00     0.227 A 
ATOM     31  N   UNL     1      24.247   7.770  54.629  1.00  0.00    -0.221 NA
ATOM     32  N   UNL     1      24.659   6.222  56.367  1.00  0.00    -0.213 NA
ATOM     33  C   UNL     1      24.845   8.710  55.386  1.00  0.00     0.117 A 
ATOM     34  C   UNL     1      25.272   7.182  57.069  1.00  0.00     0.077 A 
ATOM     35  C   UNL     1      25.376   8.439  56.589  1.00  0.00     0.049 A 
BRANCH  34  36
ATOM     36  C   UNL     1      25.776   6.777  58.407  1.00  0.00     0.019 A 
ATOM     37  C   UNL     1      24.903   6.369  59.429  1.00  0.00     0.013 A 
ATOM     38  C   UNL     1      27.155   6.807  58.692  1.00  0.00     0.121 A 
ATOM     39  C   UNL     1      25.429   6.025  60.668  1.00  0.00     0.021 A 
ATOM     40  N   UNL     1      27.667   6.485  59.886  1.00  0.00    -0.264 NA
ATOM     41  C   UNL     1      26.812   6.074  60.837  1.00  0.00     0.111 A 
ENDBRANCH  34  36
ENDBRANCH  28  30
ENDBRANCH   6  28
TORSDOF 7
ENDMDL
MODEL 6
REMARK VINA RESULT:   -11.539      3.708     11.683
REMARK INTER + INTRA:         -14.764
REMARK INTER:                 -13.627
REMARK INTRA:                  -1.136
REMARK CONF_INDEPENDENT:        2.088
REMARK UNBOUND:                -1.136
REMARK SMILES Cc1cn(-c2cc(NC(=O)c3ccc(C)c(Nc4nccc(-c5cccnc5)n4)c3)cc(C(F)(F)F)c2)cn1
REMARK SMILES IDX 11 1 12 2 13 3 14 4 15 5 16 6 30 7 9 8 10 9 8 10 7 12 6 13
REMARK SMILES IDX 31 14 5 15 32 16 37 17 4 18 3 19 38 20 2 21 39 22 1 23 33 24
REMARK SMILES IDX 34 25 35 26 36 27 17 28 18 30 19 31 29 32 20 33 22 34 21 35
REMARK SMILES IDX 23 36 24 37 28 38 25 39 27 40 26 41
REMARK H PARENT 8 11 17 29
ROOT
ATOM      1  C   UNL     1      25.914   3.769  51.764  1.00  0.00     0.042 A 
ATOM      2  C   UNL     1      25.290   4.174  50.574  1.00  0.00     0.014 A 
ATOM      3  C   UNL     1      24.162   4.996  50.588  1.00  0.00     0.006 A 
ATOM      4  C   UNL     1      23.564   5.375  51.779  1.00  0.00    -0.027 A 
ATOM      5  C   UNL     1      22.329   6.265  51.778  1.00  0.00     0.046 C 
ATOM      6  C   UNL     1      24.118   4.891  52.963  1.00  0.00     0.045 A 
ATOM      7  C   UNL     1      25.265   4.088  52.929  1.00  0.00     0.040 A 
ENDROOT
BRANCH   1   8
ATOM      8  C   UNL     1      27.028   2.804  51.846  1.00  0.00     0.255 C 
ATOM      9  O   UNL     1      27.761   2.776  50.888  1.00  0.00    -0.269 OA
ATOM     10  N   UNL     1      27.250   2.259  53.052  1.00  0.00    -0.322 N 
ATOM     11  H   UNL     1      26.591   2.503  53.804  1.00  0.00     0.170 HD
BRANCH  10  12
ATOM     12  C   UNL     1      28.289   1.396  53.377  1.00  0.00     0.044 A 
ATOM     13  C   UNL     1      29.607   1.639  52.919  1.00  0.00     0.052 A 
ATOM     14  C   UNL     1      28.032   0.193  54.071  1.00  0.00     0.039 A 
ATOM     15  C   UNL     1      30.660   0.781  53.250  1.00  0.00     0.049 A 
ATOM     16  C   UNL     1      29.109  -0.668  54.426  1.00  0.00     0.060 A 
ATOM     17  C   UNL     1      30.400  -0.374  53.979  1.00  0.00     0.039 A 
BRANCH  15  18
ATOM     18  N   UNL     1      31.977   1.035  52.836  1.00  0.00    -0.306 N 
ATOM     19  C   UNL     1      32.643   0.574  51.702  1.00  0.00     0.116 A 
ATOM     20  C   UNL     1      32.911   1.715  53.510  1.00  0.00     0.204 A 
ATOM     21  C   UNL     1      33.922   1.004  51.760  1.00  0.00     0.056 A 
ATOM     22  N   UNL     1      34.061   1.744  52.882  1.00  0.00    -0.242 NA
ATOM     23  C   UNL     1      35.025   0.776  50.754  1.00  0.00     0.068 C 
ENDBRANCH  15  18
BRANCH  16  24
ATOM     24  C   UNL     1      28.816  -1.904  55.213  1.00  0.00     0.416 C 
ATOM     25  F   UNL     1      27.928  -2.743  54.645  1.00  0.00    -0.166 F 
ATOM     26  F   UNL     1      29.895  -2.672  55.314  1.00  0.00    -0.166 F 
ATOM     27  F   UNL     1      28.264  -1.629  56.413  1.00  0.00    -0.166 F 
ENDBRANCH  16  24
ENDBRANCH  10  12
ENDBRANCH   1   8
BRANCH   6  28
ATOM     28  N   UNL     1      23.633   5.390  54.179  1.00  0.00    -0.324 N 
ATOM     29  H   UNL     1      22.636   5.292  54.419  1.00  0.00     0.170 HD
BRANCH  28  30
ATOM     30  C   UNL     1      24.512   6.020  55.062  1.00  0.00     0.227 A 
ATOM     31  N   UNL     1      25.829   6.153  54.972  1.00  0.00    -0.221 NA
ATOM     32  N   UNL     1      23.789   6.439  56.133  1.00  0.00    -0.213 NA
ATOM     33  C   UNL     1      26.446   6.774  55.996  1.00  0.00     0.117 A 
ATOM     34  C   UNL     1      24.451   7.022  57.140  1.00  0.00     0.077 A 
ATOM     35  C   UNL     1      25.789   7.196  57.087  1.00  0.00     0.049 A 
BRANCH  34  36
ATOM     36  C   UNL     1      23.611   7.493  58.272  1.00  0.00     0.019 A 
ATOM     37  C   UNL     1      24.079   8.450  59.186  1.00  0.00     0.013 A 
ATOM     38  C   UNL     1      22.316   6.974  58.467  1.00  0.00     0.121 A 
ATOM     39  C   UNL     1      23.260   8.835  60.240  1.00  0.00     0.021 A 
ATOM     40  N   UNL     1      21.525   7.335  59.485  1.00  0.00    -0.264 NA
ATOM     41  C   UNL     1      21.988   8.271  60.330  1.00  0.00     0.111 A 
ENDBRANCH  34  36
ENDBRANCH  28  30
ENDBRANCH   6  28
TORSDOF 7
ENDMDL
MODEL 7
REMARK VINA RESULT:   -11.479      2.081      3.132
REMARK INTER + INTRA:         -14.874
REMARK INTER:                 -13.567
REMARK INTRA:                  -1.308
REMARK CONF_INDEPENDENT:        2.088
REMARK UNBOUND:                -1.308
REMARK SMILES Cc1cn(-c2cc(NC(=O)c3ccc(C)c(Nc4nccc(-c5cccnc5)n4)c3)cc(C(F)(F)F)c2)cn1
REMARK SMILES IDX 11 1 12 2 13 3 14 4 15 5 16 6 30 7 9 8 10 9 8 10 7 12 6 13
REMARK SMILES IDX 31 14 5 15 32 16 37 17 4 18 3 19 38 20 2 21 39 22 1 23 33 24
REMARK SMILES IDX 34 25 35 26 36 27 17 28 18 30 19 31 29 32 20 33 22 34 21 35
REMARK SMILES IDX 23 36 24 37 28 38 25 39 27 40 26 41
REMARK H PARENT 8 11 17 29
ROOT
ATOM      1  C   UNL     1      26.973   2.404  52.389  1.00  0.00     0.042 A 
ATOM      2  C   UNL     1      27.142   1.036  52.125  1.00  0.00     0.014 A 
ATOM      3  C   UNL     1      27.924   0.227  52.950  1.00  0.00     0.006 A 
ATOM      4  C   UNL     1      28.632   0.760  54.016  1.00  0.00    -0.027 A 
ATOM      5  C   UNL     1      29.487  -0.134  54.903  1.00  0.00     0.046 C 
ATOM      6  C   UNL     1      28.551   2.136  54.222  1.00  0.00     0.045 A 
ATOM      7  C   UNL     1      27.741   2.926  53.397  1.00  0.00     0.040 A 
ENDROOT
BRANCH   1   8
ATOM      8  C   UNL     1      26.272   3.354  51.503  1.00  0.00     0.255 C 
ATOM      9  O   UNL     1      26.492   3.222  50.324  1.00  0.00    -0.269 OA
ATOM     10  N   UNL     1      25.293   4.077  52.068  1.00  0.00    -0.322 N 
ATOM     11  H   UNL     1      25.153   3.963  53.081  1.00  0.00     0.170 HD
BRANCH  10  12
ATOM     12  C   UNL     1      24.452   4.965  51.410  1.00  0.00     0.044 A 
ATOM     13  C   UNL     1      23.838   6.036  52.106  1.00  0.00     0.052 A 
ATOM     14  C   UNL     1      24.095   4.751  50.061  1.00  0.00     0.039 A 
ATOM     15  C   UNL     1      22.998   6.941  51.451  1.00  0.00     0.049 A 
ATOM     16  C   UNL     1      23.257   5.687  49.390  1.00  0.00     0.060 A 
ATOM     17  C   UNL     1      22.696   6.746  50.107  1.00  0.00     0.039 A 
BRANCH  15  18
ATOM     18  N   UNL     1      22.419   8.029  52.122  1.00  0.00    -0.306 N 
ATOM     19  C   UNL     1      21.485   8.023  53.157  1.00  0.00     0.116 A 
ATOM     20  C   UNL     1      22.581   9.326  51.834  1.00  0.00     0.204 A 
ATOM     21  C   UNL     1      21.150   9.303  53.430  1.00  0.00     0.056 A 
ATOM     22  N   UNL     1      21.871  10.104  52.614  1.00  0.00    -0.242 NA
ATOM     23  C   UNL     1      20.192   9.808  54.482  1.00  0.00     0.068 C 
ENDBRANCH  15  18
BRANCH  16  24
ATOM     24  C   UNL     1      22.943   5.468  47.945  1.00  0.00     0.416 C 
ATOM     25  F   UNL     1      23.044   4.190  47.528  1.00  0.00    -0.166 F 
ATOM     26  F   UNL     1      21.670   5.743  47.686  1.00  0.00    -0.166 F 
ATOM     27  F   UNL     1      23.790   6.131  47.131  1.00  0.00    -0.166 F 
ENDBRANCH  16  24
ENDBRANCH  10  12
ENDBRANCH   1   8
BRANCH   6  28
ATOM     28  N   UNL     1      29.124   2.671  55.383  1.00  0.00    -0.324 N 
ATOM     29  H   UNL     1      28.541   2.858  56.211  1.00  0.00     0.170 HD
BRANCH  28  30
ATOM     30  C   UNL     1      30.492   2.949  55.408  1.00  0.00     0.227 A 
ATOM     31  N   UNL     1      31.147   3.841  56.142  1.00  0.00    -0.221 NA
ATOM     32  N   UNL     1      31.087   2.180  54.460  1.00  0.00    -0.213 NA
ATOM     33  C   UNL     1      32.474   3.935  55.937  1.00  0.00     0.117 A 
ATOM     34  C   UNL     1      32.402   2.333  54.271  1.00  0.00     0.077 A 
ATOM     35  C   UNL     1      33.116   3.214  55.004  1.00  0.00     0.049 A 
BRANCH  34  36
ATOM     36  C   UNL     1      33.011   1.444  53.247  1.00  0.00     0.019 A 
ATOM     37  C   UNL     1      32.222   0.666  52.385  1.00  0.00     0.013 A 
ATOM     38  C   UNL     1      34.411   1.347  53.125  1.00  0.00     0.121 A 
ATOM     39  C   UNL     1      32.846  -0.166  51.464  1.00  0.00     0.021 A 
ATOM     40  N   UNL     1      35.019   0.541  52.245  1.00  0.00    -0.264 NA
ATOM     41  C   UNL     1      34.240  -0.172  51.416  1.00  0.00     0.111 A 
ENDBRANCH  34  36
ENDBRANCH  28  30
ENDBRANCH   6  28
TORSDOF 7
ENDMDL
MODEL 8
REMARK VINA RESULT:   -11.148      3.591     12.256
REMARK INTER + INTRA:         -14.437
REMARK INTER:                 -13.236
REMARK INTRA:                  -1.201
REMARK CONF_INDEPENDENT:        2.088
REMARK UNBOUND:                -1.201
REMARK SMILES Cc1cn(-c2cc(NC(=O)c3ccc(C)c(Nc4nccc(-c5cccnc5)n4)c3)cc(C(F)(F)F)c2)cn1
REMARK SMILES IDX 11 1 12 2 13 3 14 4 15 5 16 6 30 7 9 8 10 9 8 10 7 12 6 13
REMARK SMILES IDX 31 14 5 15 32 16 37 17 4 18 3 19 38 20 2 21 39 22 1 23 33 24
REMARK SMILES IDX 34 25 35 26 36 27 17 28 18 30 19 31 29 32 20 33 22 34 21 35
REMARK SMILES IDX 23 36 24 37 28 38 25 39 27 40 26 41
REMARK H PARENT 8 11 17 29
ROOT
ATOM      1  C   UNL     1      25.736   3.709  51.887  1.00  0.00     0.042 A 
ATOM      2  C   UNL     1      25.280   4.317  50.708  1.00  0.00     0.014 A 
ATOM      3  C   UNL     1      24.102   5.065  50.684  1.00  0.00     0.006 A 
ATOM      4  C   UNL     1      23.293   5.168  51.804  1.00  0.00    -0.027 A 
ATOM      5  C   UNL     1      22.007   5.980  51.761  1.00  0.00     0.046 C 
ATOM      6  C   UNL     1      23.687   4.480  52.951  1.00  0.00     0.045 A 
ATOM      7  C   UNL     1      24.886   3.755  52.961  1.00  0.00     0.040 A 
ENDROOT
BRANCH   1   8
ATOM      8  C   UNL     1      26.896   2.801  51.974  1.00  0.00     0.255 C 
ATOM      9  O   UNL     1      27.661   2.846  51.041  1.00  0.00    -0.269 OA
ATOM     10  N   UNL     1      27.107   2.222  53.166  1.00  0.00    -0.322 N 
ATOM     11  H   UNL     1      26.411   2.403  53.903  1.00  0.00     0.170 HD
BRANCH  10  12
ATOM     12  C   UNL     1      28.178   1.402  53.496  1.00  0.00     0.044 A 
ATOM     13  C   UNL     1      29.490   1.708  53.058  1.00  0.00     0.052 A 
ATOM     14  C   UNL     1      27.965   0.181  54.173  1.00  0.00     0.039 A 
ATOM     15  C   UNL     1      30.576   0.894  53.394  1.00  0.00     0.049 A 
ATOM     16  C   UNL     1      29.075  -0.635  54.534  1.00  0.00     0.060 A 
ATOM     17  C   UNL     1      30.357  -0.281  54.108  1.00  0.00     0.039 A 
BRANCH  15  18
ATOM     18  N   UNL     1      31.885   1.210  53.002  1.00  0.00    -0.306 N 
ATOM     19  C   UNL     1      32.639   0.677  51.958  1.00  0.00     0.116 A 
ATOM     20  C   UNL     1      32.728   2.044  53.622  1.00  0.00     0.204 A 
ATOM     21  C   UNL     1      33.875   1.220  52.010  1.00  0.00     0.056 A 
ATOM     22  N   UNL     1      33.900   2.097  53.038  1.00  0.00    -0.242 NA
ATOM     23  C   UNL     1      35.038   0.971  51.081  1.00  0.00     0.068 C 
ENDBRANCH  15  18
BRANCH  16  24
ATOM     24  C   UNL     1      28.826  -1.892  55.303  1.00  0.00     0.416 C 
ATOM     25  F   UNL     1      27.961  -2.750  54.728  1.00  0.00    -0.166 F 
ATOM     26  F   UNL     1      29.929  -2.627  55.386  1.00  0.00    -0.166 F 
ATOM     27  F   UNL     1      28.274  -1.653  56.511  1.00  0.00    -0.166 F 
ENDBRANCH  16  24
ENDBRANCH  10  12
ENDBRANCH   1   8
BRANCH   6  28
ATOM     28  N   UNL     1      22.976   4.699  54.137  1.00  0.00    -0.324 N 
ATOM     29  H   UNL     1      22.362   3.965  54.518  1.00  0.00     0.170 HD
BRANCH  28  30
ATOM     30  C   UNL     1      23.106   5.921  54.800  1.00  0.00     0.227 A 
ATOM     31  N   UNL     1      24.096   6.347  55.574  1.00  0.00    -0.221 NA
ATOM     32  N   UNL     1      21.966   6.627  54.589  1.00  0.00    -0.213 NA
ATOM     33  C   UNL     1      23.948   7.563  56.132  1.00  0.00     0.117 A 
ATOM     34  C   UNL     1      21.851   7.817  55.190  1.00  0.00     0.077 A 
ATOM     35  C   UNL     1      22.839   8.302  55.973  1.00  0.00     0.049 A 
BRANCH  34  36
ATOM     36  C   UNL     1      20.600   8.566  54.899  1.00  0.00     0.019 A 
ATOM     37  C   UNL     1      19.493   8.511  55.760  1.00  0.00     0.013 A 
ATOM     38  C   UNL     1      20.489   9.345  53.731  1.00  0.00     0.121 A 
ATOM     39  C   UNL     1      18.341   9.212  55.424  1.00  0.00     0.021 A 
ATOM     40  N   UNL     1      19.379  10.017  53.397  1.00  0.00    -0.264 NA
ATOM     41  C   UNL     1      18.344   9.967  54.252  1.00  0.00     0.111 A 
ENDBRANCH  34  36
ENDBRANCH  28  30
ENDBRANCH   6  28
TORSDOF 7
ENDMDL
MODEL 9
REMARK VINA RESULT:   -11.068      3.875     11.701
REMARK INTER + INTRA:         -14.276
REMARK INTER:                 -13.156
REMARK INTRA:                  -1.120
REMARK CONF_INDEPENDENT:        2.088
REMARK UNBOUND:                -1.120
REMARK SMILES Cc1cn(-c2cc(NC(=O)c3ccc(C)c(Nc4nccc(-c5cccnc5)n4)c3)cc(C(F)(F)F)c2)cn1
REMARK SMILES IDX 11 1 12 2 13 3 14 4 15 5 16 6 30 7 9 8 10 9 8 10 7 12 6 13
REMARK SMILES IDX 31 14 5 15 32 16 37 17 4 18 3 19 38 20 2 21 39 22 1 23 33 24
REMARK SMILES IDX 34 25 35 26 36 27 17 28 18 30 19 31 29 32 20 33 22 34 21 35
REMARK SMILES IDX 23 36 24 37 28 38 25 39 27 40 26 41
REMARK H PARENT 8 11 17 29
ROOT
ATOM      1  C   UNL     1      25.768   3.478  51.856  1.00  0.00     0.042 A 
ATOM      2  C   UNL     1      24.911   3.302  50.759  1.00  0.00     0.014 A 
ATOM      3  C   UNL     1      23.576   3.704  50.808  1.00  0.00     0.006 A 
ATOM      4  C   UNL     1      23.021   4.216  51.970  1.00  0.00    -0.027 A 
ATOM      5  C   UNL     1      21.561   4.643  52.011  1.00  0.00     0.046 C 
ATOM      6  C   UNL     1      23.840   4.297  53.095  1.00  0.00     0.045 A 
ATOM      7  C   UNL     1      25.185   3.912  53.018  1.00  0.00     0.040 A 
ENDROOT
BRANCH   1   8
ATOM      8  C   UNL     1      27.151   2.969  51.936  1.00  0.00     0.255 C 
ATOM      9  O   UNL     1      27.721   2.850  50.879  1.00  0.00    -0.269 OA
ATOM     10  N   UNL     1      27.700   2.938  53.159  1.00  0.00    -0.322 N 
ATOM     11  H   UNL     1      27.097   3.205  53.950  1.00  0.00     0.170 HD
BRANCH  10  12
ATOM     12  C   UNL     1      29.009   2.578  53.458  1.00  0.00     0.044 A 
ATOM     13  C   UNL     1      29.691   1.609  52.681  1.00  0.00     0.052 A 
ATOM     14  C   UNL     1      29.645   3.079  54.614  1.00  0.00     0.039 A 
ATOM     15  C   UNL     1      31.011   1.248  52.967  1.00  0.00     0.049 A 
ATOM     16  C   UNL     1      30.997   2.726  54.891  1.00  0.00     0.060 A 
ATOM     17  C   UNL     1      31.643   1.790  54.081  1.00  0.00     0.039 A 
BRANCH  15  18
ATOM     18  N   UNL     1      31.709   0.321  52.178  1.00  0.00    -0.306 N 
ATOM     19  C   UNL     1      31.330  -0.263  50.971  1.00  0.00     0.116 A 
ATOM     20  C   UNL     1      32.871  -0.272  52.479  1.00  0.00     0.204 A 
ATOM     21  C   UNL     1      32.278  -1.160  50.620  1.00  0.00     0.056 A 
ATOM     22  N   UNL     1      33.249  -1.127  51.560  1.00  0.00    -0.242 NA
ATOM     23  C   UNL     1      32.324  -2.028  49.386  1.00  0.00     0.068 C 
ENDBRANCH  15  18
BRANCH  16  24
ATOM     24  C   UNL     1      31.666   3.318  56.089  1.00  0.00     0.416 C 
ATOM     25  F   UNL     1      31.050   4.398  56.610  1.00  0.00    -0.166 F 
ATOM     26  F   UNL     1      31.650   2.472  57.112  1.00  0.00    -0.166 F 
ATOM     27  F   UNL     1      32.907   3.769  55.812  1.00  0.00    -0.166 F 
ENDBRANCH  16  24
ENDBRANCH  10  12
ENDBRANCH   1   8
BRANCH   6  28
ATOM     28  N   UNL     1      23.352   4.959  54.229  1.00  0.00    -0.324 N 
ATOM     29  H   UNL     1      22.388   4.795  54.551  1.00  0.00     0.170 HD
BRANCH  28  30
ATOM     30  C   UNL     1      24.183   5.843  54.919  1.00  0.00     0.227 A 
ATOM     31  N   UNL     1      25.420   6.225  54.625  1.00  0.00    -0.221 NA
ATOM     32  N   UNL     1      23.533   6.223  56.049  1.00  0.00    -0.213 NA
ATOM     33  C   UNL     1      26.017   7.063  55.493  1.00  0.00     0.117 A 
ATOM     34  C   UNL     1      24.180   7.031  56.897  1.00  0.00     0.077 A 
ATOM     35  C   UNL     1      25.432   7.462  56.633  1.00  0.00     0.049 A 
BRANCH  34  36
ATOM     36  C   UNL     1      23.412   7.445  58.101  1.00  0.00     0.019 A 
ATOM     37  C   UNL     1      24.057   7.866  59.275  1.00  0.00     0.013 A 
ATOM     38  C   UNL     1      22.004   7.412  58.098  1.00  0.00     0.121 A 
ATOM     39  C   UNL     1      23.289   8.218  60.378  1.00  0.00     0.021 A 
ATOM     40  N   UNL     1      21.259   7.742  59.160  1.00  0.00    -0.264 NA
ATOM     41  C   UNL     1      21.900   8.165  60.262  1.00  0.00     0.111 A 
ENDBRANCH  34  36
ENDBRANCH  28  30
ENDBRANCH   6  28
TORSDOF 7
ENDMDL
MODEL 10
REMARK VINA RESULT:   -10.930      2.764      5.021
REMARK INTER + INTRA:         -14.670
REMARK INTER:                 -13.018
REMARK INTRA:                  -1.652
REMARK CONF_INDEPENDENT:        2.088
REMARK UNBOUND:                -1.652
REMARK SMILES Cc1cn(-c2cc(NC(=O)c3ccc(C)c(Nc4nccc(-c5cccnc5)n4)c3)cc(C(F)(F)F)c2)cn1
REMARK SMILES IDX 11 1 12 2 13 3 14 4 15 5 16 6 30 7 9 8 10 9 8 10 7 12 6 13
REMARK SMILES IDX 31 14 5 15 32 16 37 17 4 18 3 19 38 20 2 21 39 22 1 23 33 24
REMARK SMILES IDX 34 25 35 26 36 27 17 28 18 30 19 31 29 32 20 33 22 34 21 35
REMARK SMILES IDX 23 36 24 37 28 38 25 39 27 40 26 41
REMARK H PARENT 8 11 17 29
ROOT
ATOM      1  C   UNL     1      27.789   1.700  53.213  1.00  0.00     0.042 A 
ATOM      2  C   UNL     1      27.448   0.979  54.367  1.00  0.00     0.014 A 
ATOM      3  C   UNL     1      28.089  -0.217  54.693  1.00  0.00     0.006 A 
ATOM      4  C   UNL     1      29.029  -0.782  53.847  1.00  0.00    -0.027 A 
ATOM      5  C   UNL     1      29.715  -2.091  54.212  1.00  0.00     0.046 C 
ATOM      6  C   UNL     1      29.298  -0.124  52.648  1.00  0.00     0.045 A 
ATOM      7  C   UNL     1      28.662   1.088  52.351  1.00  0.00     0.040 A 
ENDROOT
BRANCH   1   8
ATOM      8  C   UNL     1      27.080   2.899  52.727  1.00  0.00     0.255 C 
ATOM      9  O   UNL     1      27.330   3.226  51.592  1.00  0.00    -0.269 OA
ATOM     10  N   UNL     1      26.067   3.338  53.490  1.00  0.00    -0.322 N 
ATOM     11  H   UNL     1      25.908   2.848  54.382  1.00  0.00     0.170 HD
BRANCH  10  12
ATOM     12  C   UNL     1      25.215   4.392  53.188  1.00  0.00     0.044 A 
ATOM     13  C   UNL     1      24.823   4.650  51.851  1.00  0.00     0.052 A 
ATOM     14  C   UNL     1      24.817   5.303  54.191  1.00  0.00     0.039 A 
ATOM     15  C   UNL     1      23.958   5.703  51.539  1.00  0.00     0.049 A 
ATOM     16  C   UNL     1      23.918   6.361  53.874  1.00  0.00     0.060 A 
ATOM     17  C   UNL     1      23.532   6.562  52.546  1.00  0.00     0.039 A 
BRANCH  15  18
ATOM     18  N   UNL     1      23.530   5.941  50.224  1.00  0.00    -0.306 N 
ATOM     19  C   UNL     1      22.464   5.368  49.532  1.00  0.00     0.116 A 
ATOM     20  C   UNL     1      24.130   6.718  49.315  1.00  0.00     0.204 A 
ATOM     21  C   UNL     1      22.484   5.835  48.265  1.00  0.00     0.056 A 
ATOM     22  N   UNL     1      23.514   6.703  48.158  1.00  0.00    -0.242 NA
ATOM     23  C   UNL     1      21.522   5.521  47.144  1.00  0.00     0.068 C 
ENDBRANCH  15  18
BRANCH  16  24
ATOM     24  C   UNL     1      23.465   7.275  54.966  1.00  0.00     0.416 C 
ATOM     25  F   UNL     1      24.368   7.485  55.944  1.00  0.00    -0.166 F 
ATOM     26  F   UNL     1      23.265   8.505  54.508  1.00  0.00    -0.166 F 
ATOM     27  F   UNL     1      22.394   6.791  55.628  1.00  0.00    -0.166 F 
ENDBRANCH  16  24
ENDBRANCH  10  12
ENDBRANCH   1   8
BRANCH   6  28
ATOM     28  N   UNL     1      30.357  -0.586  51.856  1.00  0.00    -0.324 N 
ATOM     29  H   UNL     1      30.199  -1.328  51.160  1.00  0.00     0.170 HD
BRANCH  28  30
ATOM     30  C   UNL     1      31.629  -0.033  52.019  1.00  0.00     0.227 A 
ATOM     31  N   UNL     1      32.754  -0.331  51.382  1.00  0.00    -0.221 NA
ATOM     32  N   UNL     1      31.562   0.858  53.042  1.00  0.00    -0.213 NA
ATOM     33  C   UNL     1      33.862   0.330  51.768  1.00  0.00     0.117 A 
ATOM     34  C   UNL     1      32.695   1.467  53.411  1.00  0.00     0.077 A 
ATOM     35  C   UNL     1      33.862   1.211  52.781  1.00  0.00     0.049 A 
BRANCH  34  36
ATOM     36  C   UNL     1      32.563   2.458  54.510  1.00  0.00     0.019 A 
ATOM     37  C   UNL     1      31.482   2.424  55.405  1.00  0.00     0.013 A 
ATOM     38  C   UNL     1      33.522   3.477  54.673  1.00  0.00     0.121 A 
ATOM     39  C   UNL     1      31.397   3.392  56.398  1.00  0.00     0.021 A 
ATOM     40  N   UNL     1      33.441   4.417  55.624  1.00  0.00    -0.264 NA
ATOM     41  C   UNL     1      32.411   4.346  56.481  1.00  0.00     0.111 A 
ENDBRANCH  34  36
ENDBRANCH  28  30
ENDBRANCH   6  28
TORSDOF 7
ENDMDL
MODEL 11
REMARK VINA RESULT:   -10.924      4.059     11.307
REMARK INTER + INTRA:         -14.156
REMARK INTER:                 -13.012
REMARK INTRA:                  -1.144
REMARK CONF_INDEPENDENT:        2.088
REMARK UNBOUND:                -1.144
REMARK SMILES Cc1cn(-c2cc(NC(=O)c3ccc(C)c(Nc4nccc(-c5cccnc5)n4)c3)cc(C(F)(F)F)c2)cn1
REMARK SMILES IDX 11 1 12 2 13 3 14 4 15 5 16 6 30 7 9 8 10 9 8 10 7 12 6 13
REMARK SMILES IDX 31 14 5 15 32 16 37 17 4 18 3 19 38 20 2 21 39 22 1 23 33 24
REMARK SMILES IDX 34 25 35 26 36 27 17 28 18 30 19 31 29 32 20 33 22 34 21 35
REMARK SMILES IDX 23 36 24 37 28 38 25 39 27 40 26 41
REMARK H PARENT 8 11 17 29
ROOT
ATOM      1  C   UNL     1      25.461   3.822  52.024  1.00  0.00     0.042 A 
ATOM      2  C   UNL     1      24.310   3.268  51.444  1.00  0.00     0.014 A 
ATOM      3  C   UNL     1      23.060   3.874  51.586  1.00  0.00     0.006 A 
ATOM      4  C   UNL     1      22.894   5.000  52.375  1.00  0.00    -0.027 A 
ATOM      5  C   UNL     1      21.524   5.646  52.527  1.00  0.00     0.046 C 
ATOM      6  C   UNL     1      24.015   5.496  53.039  1.00  0.00     0.045 A 
ATOM      7  C   UNL     1      25.265   4.889  52.863  1.00  0.00     0.040 A 
ENDROOT
BRANCH   1   8
ATOM      8  C   UNL     1      26.792   3.185  52.031  1.00  0.00     0.255 C 
ATOM      9  O   UNL     1      27.249   2.927  50.945  1.00  0.00    -0.269 OA
ATOM     10  N   UNL     1      27.445   3.193  53.203  1.00  0.00    -0.322 N 
ATOM     11  H   UNL     1      26.944   3.580  54.015  1.00  0.00     0.170 HD
BRANCH  10  12
ATOM     12  C   UNL     1      28.736   2.727  53.421  1.00  0.00     0.044 A 
ATOM     13  C   UNL     1      29.285   1.701  52.612  1.00  0.00     0.052 A 
ATOM     14  C   UNL     1      29.485   3.180  54.529  1.00  0.00     0.039 A 
ATOM     15  C   UNL     1      30.585   1.233  52.817  1.00  0.00     0.049 A 
ATOM     16  C   UNL     1      30.818   2.717  54.723  1.00  0.00     0.060 A 
ATOM     17  C   UNL     1      31.331   1.726  53.883  1.00  0.00     0.039 A 
BRANCH  15  18
ATOM     18  N   UNL     1      31.153   0.247  51.995  1.00  0.00    -0.306 N 
ATOM     19  C   UNL     1      32.485  -0.153  51.900  1.00  0.00     0.116 A 
ATOM     20  C   UNL     1      30.529  -0.462  51.047  1.00  0.00     0.204 A 
ATOM     21  C   UNL     1      32.579  -1.073  50.915  1.00  0.00     0.056 A 
ATOM     22  N   UNL     1      31.340  -1.276  50.416  1.00  0.00    -0.242 NA
ATOM     23  C   UNL     1      33.810  -1.813  50.451  1.00  0.00     0.068 C 
ENDBRANCH  15  18
BRANCH  16  24
ATOM     24  C   UNL     1      31.610   3.258  55.869  1.00  0.00     0.416 C 
ATOM     25  F   UNL     1      31.082   4.347  56.462  1.00  0.00    -0.166 F 
ATOM     26  F   UNL     1      31.650   2.390  56.873  1.00  0.00    -0.166 F 
ATOM     27  F   UNL     1      32.839   3.670  55.494  1.00  0.00    -0.166 F 
ENDBRANCH  16  24
ENDBRANCH  10  12
ENDBRANCH   1   8
BRANCH   6  28
ATOM     28  N   UNL     1      23.906   6.722  53.708  1.00  0.00    -0.324 N 
ATOM     29  H   UNL     1      24.309   7.575  53.297  1.00  0.00     0.170 HD
BRANCH  28  30
ATOM     30  C   UNL     1      23.246   6.777  54.937  1.00  0.00     0.227 A 
ATOM     31  N   UNL     1      21.956   6.972  55.181  1.00  0.00    -0.221 NA
ATOM     32  N   UNL     1      24.184   6.671  55.913  1.00  0.00    -0.213 NA
ATOM     33  C   UNL     1      21.586   7.025  56.475  1.00  0.00     0.117 A 
ATOM     34  C   UNL     1      23.772   6.761  57.183  1.00  0.00     0.077 A 
ATOM     35  C   UNL     1      22.468   6.942  57.483  1.00  0.00     0.049 A 
BRANCH  34  36
ATOM     36  C   UNL     1      24.831   6.604  58.214  1.00  0.00     0.019 A 
ATOM     37  C   UNL     1      24.522   6.256  59.539  1.00  0.00     0.013 A 
ATOM     38  C   UNL     1      26.184   6.818  57.888  1.00  0.00     0.121 A 
ATOM     39  C   UNL     1      25.551   6.148  60.466  1.00  0.00     0.021 A 
ATOM     40  N   UNL     1      27.180   6.723  58.779  1.00  0.00    -0.264 NA
ATOM     41  C   UNL     1      26.858   6.364  60.032  1.00  0.00     0.111 A 
ENDBRANCH  34  36
ENDBRANCH  28  30
ENDBRANCH   6  28
TORSDOF 7
ENDMDL
MODEL 12
REMARK VINA RESULT:   -10.903      3.549     12.107
REMARK INTER + INTRA:         -14.305
REMARK INTER:                 -12.992
REMARK INTRA:                  -1.313
REMARK CONF_INDEPENDENT:        2.088
REMARK UNBOUND:                -1.313
REMARK SMILES Cc1cn(-c2cc(NC(=O)c3ccc(C)c(Nc4nccc(-c5cccnc5)n4)c3)cc(C(F)(F)F)c2)cn1
REMARK SMILES IDX 11 1 12 2 13 3 14 4 15 5 16 6 30 7 9 8 10 9 8 10 7 12 6 13
REMARK SMILES IDX 31 14 5 15 32 16 37 17 4 18 3 19 38 20 2 21 39 22 1 23 33 24
REMARK SMILES IDX 34 25 35 26 36 27 17 28 18 30 19 31 29 32 20 33 22 34 21 35
REMARK SMILES IDX 23 36 24 37 28 38 25 39 27 40 26 41
REMARK H PARENT 8 11 17 29
ROOT
ATOM      1  C   UNL     1      25.557   3.772  51.887  1.00  0.00     0.042 A 
ATOM      2  C   UNL     1      24.822   4.008  50.716  1.00  0.00     0.014 A 
ATOM      3  C   UNL     1      23.498   4.448  50.765  1.00  0.00     0.006 A 
ATOM      4  C   UNL     1      22.832   4.590  51.972  1.00  0.00    -0.027 A 
ATOM      5  C   UNL     1      21.386   5.064  52.010  1.00  0.00     0.046 C 
ATOM      6  C   UNL     1      23.525   4.257  53.135  1.00  0.00     0.045 A 
ATOM      7  C   UNL     1      24.861   3.841  53.066  1.00  0.00     0.040 A 
ENDROOT
BRANCH   1   8
ATOM      8  C   UNL     1      26.912   3.187  51.929  1.00  0.00     0.255 C 
ATOM      9  O   UNL     1      27.435   3.015  50.855  1.00  0.00    -0.269 OA
ATOM     10  N   UNL     1      27.503   3.148  53.132  1.00  0.00    -0.322 N 
ATOM     11  H   UNL     1      26.944   3.465  53.938  1.00  0.00     0.170 HD
BRANCH  10  12
ATOM     12  C   UNL     1      28.798   2.719  53.392  1.00  0.00     0.044 A 
ATOM     13  C   UNL     1      29.400   1.705  52.606  1.00  0.00     0.052 A 
ATOM     14  C   UNL     1      29.501   3.199  54.519  1.00  0.00     0.039 A 
ATOM     15  C   UNL     1      30.706   1.274  52.853  1.00  0.00     0.049 A 
ATOM     16  C   UNL     1      30.840   2.775  54.756  1.00  0.00     0.060 A 
ATOM     17  C   UNL     1      31.405   1.794  53.938  1.00  0.00     0.039 A 
BRANCH  15  18
ATOM     18  N   UNL     1      31.325   0.301  52.055  1.00  0.00    -0.306 N 
ATOM     19  C   UNL     1      32.685   0.055  51.871  1.00  0.00     0.116 A 
ATOM     20  C   UNL     1      30.722  -0.552  51.218  1.00  0.00     0.204 A 
ATOM     21  C   UNL     1      32.815  -0.923  50.948  1.00  0.00     0.056 A 
ATOM     22  N   UNL     1      31.575  -1.311  50.576  1.00  0.00    -0.242 NA
ATOM     23  C   UNL     1      34.088  -1.546  50.428  1.00  0.00     0.068 C 
ENDBRANCH  15  18
BRANCH  16  24
ATOM     24  C   UNL     1      31.581   3.344  55.922  1.00  0.00     0.416 C 
ATOM     25  F   UNL     1      30.985   4.396  56.517  1.00  0.00    -0.166 F 
ATOM     26  F   UNL     1      31.651   2.468  56.917  1.00  0.00    -0.166 F 
ATOM     27  F   UNL     1      32.792   3.826  55.573  1.00  0.00    -0.166 F 
ENDBRANCH  16  24
ENDBRANCH  10  12
ENDBRANCH   1   8
BRANCH   6  28
ATOM     28  N   UNL     1      22.932   4.546  54.370  1.00  0.00    -0.324 N 
ATOM     29  H   UNL     1      22.378   3.829  54.861  1.00  0.00     0.170 HD
BRANCH  28  30
ATOM     30  C   UNL     1      23.096   5.814  54.932  1.00  0.00     0.227 A 
ATOM     31  N   UNL     1      23.971   6.212  55.846  1.00  0.00    -0.221 NA
ATOM     32  N   UNL     1      22.120   6.615  54.432  1.00  0.00    -0.213 NA
ATOM     33  C   UNL     1      23.884   7.494  56.250  1.00  0.00     0.117 A 
ATOM     34  C   UNL     1      22.053   7.871  54.888  1.00  0.00     0.077 A 
ATOM     35  C   UNL     1      22.932   8.329  55.805  1.00  0.00     0.049 A 
BRANCH  34  36
ATOM     36  C   UNL     1      20.991   8.718  54.284  1.00  0.00     0.019 A 
ATOM     37  C   UNL     1      19.648   8.306  54.259  1.00  0.00     0.013 A 
ATOM     38  C   UNL     1      21.310   9.960  53.703  1.00  0.00     0.121 A 
ATOM     39  C   UNL     1      18.702   9.127  53.659  1.00  0.00     0.021 A 
ATOM     40  N   UNL     1      20.403  10.752  53.117  1.00  0.00    -0.264 NA
ATOM     41  C   UNL     1      19.123  10.346  53.129  1.00  0.00     0.111 A 
ENDBRANCH  34  36
ENDBRANCH  28  30
ENDBRANCH   6  28
TORSDOF 7
ENDMDL
MODEL 13
REMARK VINA RESULT:   -10.894      8.383     15.264
REMARK INTER + INTRA:         -14.280
REMARK INTER:                 -12.982
REMARK INTRA:                  -1.298
REMARK CONF_INDEPENDENT:        2.088
REMARK UNBOUND:                -1.298
REMARK SMILES Cc1cn(-c2cc(NC(=O)c3ccc(C)c(Nc4nccc(-c5cccnc5)n4)c3)cc(C(F)(F)F)c2)cn1
REMARK SMILES IDX 11 1 12 2 13 3 14 4 15 5 16 6 30 7 9 8 10 9 8 10 7 12 6 13
REMARK SMILES IDX 31 14 5 15 32 16 37 17 4 18 3 19 38 20 2 21 39 22 1 23 33 24
REMARK SMILES IDX 34 25 35 26 36 27 17 28 18 30 19 31 29 32 20 33 22 34 21 35
REMARK SMILES IDX 23 36 24 37 28 38 25 39 27 40 26 41
REMARK H PARENT 8 11 17 29
ROOT
ATOM      1  C   UNL     1      35.999  -1.654  49.263  1.00  0.00     0.042 A 
ATOM      2  C   UNL     1      35.215  -2.813  49.156  1.00  0.00     0.014 A 
ATOM      3  C   UNL     1      33.843  -2.787  49.409  1.00  0.00     0.006 A 
ATOM      4  C   UNL     1      33.216  -1.635  49.855  1.00  0.00    -0.027 A 
ATOM      5  C   UNL     1      31.719  -1.624  50.134  1.00  0.00     0.046 C 
ATOM      6  C   UNL     1      34.008  -0.507  50.063  1.00  0.00     0.045 A 
ATOM      7  C   UNL     1      35.379  -0.547  49.780  1.00  0.00     0.040 A 
ENDROOT
BRANCH   1   8
ATOM      8  C   UNL     1      37.470  -1.617  49.139  1.00  0.00     0.255 C 
ATOM      9  O   UNL     1      38.059  -1.177  50.096  1.00  0.00    -0.269 OA
ATOM     10  N   UNL     1      37.994  -2.294  48.106  1.00  0.00    -0.322 N 
ATOM     11  H   UNL     1      37.332  -2.728  47.448  1.00  0.00     0.170 HD
BRANCH  10  12
ATOM     12  C   UNL     1      39.348  -2.463  47.844  1.00  0.00     0.044 A 
ATOM     13  C   UNL     1      39.911  -2.028  46.619  1.00  0.00     0.052 A 
ATOM     14  C   UNL     1      40.168  -3.181  48.742  1.00  0.00     0.039 A 
ATOM     15  C   UNL     1      41.274  -2.185  46.351  1.00  0.00     0.049 A 
ATOM     16  C   UNL     1      41.561  -3.320  48.477  1.00  0.00     0.060 A 
ATOM     17  C   UNL     1      42.081  -2.848  47.269  1.00  0.00     0.039 A 
BRANCH  15  18
ATOM     18  N   UNL     1      41.849  -1.719  45.159  1.00  0.00    -0.306 N 
ATOM     19  C   UNL     1      42.150  -0.411  44.784  1.00  0.00     0.116 A 
ATOM     20  C   UNL     1      42.150  -2.447  44.077  1.00  0.00     0.204 A 
ATOM     21  C   UNL     1      42.613  -0.432  43.515  1.00  0.00     0.056 A 
ATOM     22  N   UNL     1      42.636  -1.718  43.102  1.00  0.00    -0.242 NA
ATOM     23  C   UNL     1      43.085   0.734  42.679  1.00  0.00     0.068 C 
ENDBRANCH  15  18
BRANCH  16  24
ATOM     24  C   UNL     1      42.417  -4.031  49.473  1.00  0.00     0.416 C 
ATOM     25  F   UNL     1      42.846  -5.250  49.088  1.00  0.00    -0.166 F 
ATOM     26  F   UNL     1      43.562  -3.386  49.666  1.00  0.00    -0.166 F 
ATOM     27  F   UNL     1      41.764  -4.279  50.627  1.00  0.00    -0.166 F 
ENDBRANCH  16  24
ENDBRANCH  10  12
ENDBRANCH   1   8
BRANCH   6  28
ATOM     28  N   UNL     1      33.375   0.707  50.356  1.00  0.00    -0.324 N 
ATOM     29  H   UNL     1      33.046   1.318  49.595  1.00  0.00     0.170 HD
BRANCH  28  30
ATOM     30  C   UNL     1      33.193   1.083  51.688  1.00  0.00     0.227 A 
ATOM     31  N   UNL     1      33.889   1.952  52.410  1.00  0.00    -0.221 NA
ATOM     32  N   UNL     1      32.185   0.328  52.195  1.00  0.00    -0.213 NA
ATOM     33  C   UNL     1      33.525   2.096  53.699  1.00  0.00     0.117 A 
ATOM     34  C   UNL     1      31.881   0.484  53.489  1.00  0.00     0.077 A 
ATOM     35  C   UNL     1      32.548   1.368  54.261  1.00  0.00     0.049 A 
BRANCH  34  36
ATOM     36  C   UNL     1      30.748  -0.340  53.986  1.00  0.00     0.019 A 
ATOM     37  C   UNL     1      29.656   0.238  54.653  1.00  0.00     0.013 A 
ATOM     38  C   UNL     1      30.749  -1.738  53.813  1.00  0.00     0.121 A 
ATOM     39  C   UNL     1      28.637  -0.584  55.118  1.00  0.00     0.021 A 
ATOM     40  N   UNL     1      29.774  -2.536  54.266  1.00  0.00    -0.264 NA
ATOM     41  C   UNL     1      28.730  -1.954  54.877  1.00  0.00     0.111 A 
ENDBRANCH  34  36
ENDBRANCH  28  30
ENDBRANCH   6  28
TORSDOF 7
ENDMDL
MODEL 14
REMARK VINA RESULT:   -10.864      3.767     11.943
REMARK INTER + INTRA:         -14.222
REMARK INTER:                 -12.952
REMARK INTRA:                  -1.270
REMARK CONF_INDEPENDENT:        2.088
REMARK UNBOUND:                -1.270
REMARK SMILES Cc1cn(-c2cc(NC(=O)c3ccc(C)c(Nc4nccc(-c5cccnc5)n4)c3)cc(C(F)(F)F)c2)cn1
REMARK SMILES IDX 11 1 12 2 13 3 14 4 15 5 16 6 30 7 9 8 10 9 8 10 7 12 6 13
REMARK SMILES IDX 31 14 5 15 32 16 37 17 4 18 3 19 38 20 2 21 39 22 1 23 33 24
REMARK SMILES IDX 34 25 35 26 36 27 17 28 18 30 19 31 29 32 20 33 22 34 21 35
REMARK SMILES IDX 23 36 24 37 28 38 25 39 27 40 26 41
REMARK H PARENT 8 11 17 29
ROOT
ATOM      1  C   UNL     1      25.946   3.874  51.955  1.00  0.00     0.042 A 
ATOM      2  C   UNL     1      25.250   4.252  50.797  1.00  0.00     0.014 A 
ATOM      3  C   UNL     1      24.148   5.107  50.858  1.00  0.00     0.006 A 
ATOM      4  C   UNL     1      23.648   5.549  52.072  1.00  0.00    -0.027 A 
ATOM      5  C   UNL     1      22.440   6.474  52.123  1.00  0.00     0.046 C 
ATOM      6  C   UNL     1      24.271   5.093  53.232  1.00  0.00     0.045 A 
ATOM      7  C   UNL     1      25.391   4.255  53.149  1.00  0.00     0.040 A 
ENDROOT
BRANCH   1   8
ATOM      8  C   UNL     1      27.036   2.880  51.996  1.00  0.00     0.255 C 
ATOM      9  O   UNL     1      27.719   2.817  51.003  1.00  0.00    -0.269 OA
ATOM     10  N   UNL     1      27.304   2.346  53.197  1.00  0.00    -0.322 N 
ATOM     11  H   UNL     1      26.690   2.618  53.978  1.00  0.00     0.170 HD
BRANCH  10  12
ATOM     12  C   UNL     1      28.334   1.458  53.484  1.00  0.00     0.044 A 
ATOM     13  C   UNL     1      29.647   1.688  53.003  1.00  0.00     0.052 A 
ATOM     14  C   UNL     1      28.071   0.247  54.160  1.00  0.00     0.039 A 
ATOM     15  C   UNL     1      30.691   0.806  53.294  1.00  0.00     0.049 A 
ATOM     16  C   UNL     1      29.140  -0.639  54.476  1.00  0.00     0.060 A 
ATOM     17  C   UNL     1      30.426  -0.359  54.007  1.00  0.00     0.039 A 
BRANCH  15  18
ATOM     18  N   UNL     1      32.003   1.046  52.858  1.00  0.00    -0.306 N 
ATOM     19  C   UNL     1      32.647   0.569  51.717  1.00  0.00     0.116 A 
ATOM     20  C   UNL     1      32.954   1.725  53.511  1.00  0.00     0.204 A 
ATOM     21  C   UNL     1      33.931   0.989  51.751  1.00  0.00     0.056 A 
ATOM     22  N   UNL     1      34.094   1.738  52.865  1.00  0.00    -0.242 NA
ATOM     23  C   UNL     1      35.015   0.744  50.730  1.00  0.00     0.068 C 
ENDBRANCH  15  18
BRANCH  16  24
ATOM     24  C   UNL     1      28.842  -1.885  55.244  1.00  0.00     0.416 C 
ATOM     25  F   UNL     1      28.000  -2.742  54.635  1.00  0.00    -0.166 F 
ATOM     26  F   UNL     1      29.933  -2.628  55.390  1.00  0.00    -0.166 F 
ATOM     27  F   UNL     1      28.233  -1.628  56.420  1.00  0.00    -0.166 F 
ENDBRANCH  16  24
ENDBRANCH  10  12
ENDBRANCH   1   8
BRANCH   6  28
ATOM     28  N   UNL     1      23.888   5.651  54.458  1.00  0.00    -0.324 N 
ATOM     29  H   UNL     1      23.107   5.244  54.993  1.00  0.00     0.170 HD
BRANCH  28  30
ATOM     30  C   UNL     1      24.574   6.763  54.951  1.00  0.00     0.227 A 
ATOM     31  N   UNL     1      25.828   6.847  55.375  1.00  0.00    -0.221 NA
ATOM     32  N   UNL     1      23.695   7.797  55.008  1.00  0.00    -0.213 NA
ATOM     33  C   UNL     1      26.230   8.043  55.846  1.00  0.00     0.117 A 
ATOM     34  C   UNL     1      24.131   8.956  55.513  1.00  0.00     0.077 A 
ATOM     35  C   UNL     1      25.404   9.097  55.942  1.00  0.00     0.049 A 
BRANCH  34  36
ATOM     36  C   UNL     1      23.142  10.065  55.522  1.00  0.00     0.019 A 
ATOM     37  C   UNL     1      22.469  10.442  56.695  1.00  0.00     0.013 A 
ATOM     38  C   UNL     1      22.840  10.765  54.337  1.00  0.00     0.121 A 
ATOM     39  C   UNL     1      21.536  11.469  56.638  1.00  0.00     0.021 A 
ATOM     40  N   UNL     1      21.936  11.750  54.274  1.00  0.00    -0.264 NA
ATOM     41  C   UNL     1      21.326  12.107  55.416  1.00  0.00     0.111 A 
ENDBRANCH  34  36
ENDBRANCH  28  30
ENDBRANCH   6  28
TORSDOF 7
ENDMDL
MODEL 15
REMARK VINA RESULT:   -10.824      4.591      7.464
REMARK INTER + INTRA:         -13.751
REMARK INTER:                 -12.912
REMARK INTRA:                  -0.838
REMARK CONF_INDEPENDENT:        2.088
REMARK UNBOUND:                -0.838
REMARK SMILES Cc1cn(-c2cc(NC(=O)c3ccc(C)c(Nc4nccc(-c5cccnc5)n4)c3)cc(C(F)(F)F)c2)cn1
REMARK SMILES IDX 11 1 12 2 13 3 14 4 15 5 16 6 30 7 9 8 10 9 8 10 7 12 6 13
REMARK SMILES IDX 31 14 5 15 32 16 37 17 4 18 3 19 38 20 2 21 39 22 1 23 33 24
REMARK SMILES IDX 34 25 35 26 36 27 17 28 18 30 19 31 29 32 20 33 22 34 21 35
REMARK SMILES IDX 23 36 24 37 28 38 25 39 27 40 26 41
REMARK H PARENT 8 11 17 29
ROOT
ATOM      1  C   UNL     1      23.039   5.923  52.518  1.00  0.00     0.042 A 
ATOM      2  C   UNL     1      22.717   5.534  51.209  1.00  0.00     0.014 A 
ATOM      3  C   UNL     1      23.303   4.414  50.619  1.00  0.00     0.006 A 
ATOM      4  C   UNL     1      24.288   3.690  51.271  1.00  0.00    -0.027 A 
ATOM      5  C   UNL     1      24.925   2.475  50.612  1.00  0.00     0.046 C 
ATOM      6  C   UNL     1      24.687   4.133  52.532  1.00  0.00     0.045 A 
ATOM      7  C   UNL     1      24.068   5.245  53.117  1.00  0.00     0.040 A 
ENDROOT
BRANCH   1   8
ATOM      8  C   UNL     1      22.565   7.159  53.171  1.00  0.00     0.255 C 
ATOM      9  O   UNL     1      23.217   8.148  52.943  1.00  0.00    -0.269 OA
ATOM     10  N   UNL     1      21.346   7.104  53.728  1.00  0.00    -0.322 N 
ATOM     11  H   UNL     1      20.866   6.193  53.715  1.00  0.00     0.170 HD
BRANCH  10  12
ATOM     12  C   UNL     1      20.670   8.164  54.320  1.00  0.00     0.044 A 
ATOM     13  C   UNL     1      19.661   8.867  53.617  1.00  0.00     0.052 A 
ATOM     14  C   UNL     1      21.058   8.642  55.591  1.00  0.00     0.039 A 
ATOM     15  C   UNL     1      18.969   9.928  54.208  1.00  0.00     0.049 A 
ATOM     16  C   UNL     1      20.338   9.709  56.200  1.00  0.00     0.060 A 
ATOM     17  C   UNL     1      19.328  10.355  55.482  1.00  0.00     0.039 A 
BRANCH  15  18
ATOM     18  N   UNL     1      17.939  10.603  53.535  1.00  0.00    -0.306 N 
ATOM     19  C   UNL     1      16.868  11.318  54.067  1.00  0.00     0.116 A 
ATOM     20  C   UNL     1      17.721  10.620  52.215  1.00  0.00     0.204 A 
ATOM     21  C   UNL     1      16.081  11.722  53.046  1.00  0.00     0.056 A 
ATOM     22  N   UNL     1      16.650  11.304  51.894  1.00  0.00    -0.242 NA
ATOM     23  C   UNL     1      14.816  12.542  53.116  1.00  0.00     0.068 C 
ENDBRANCH  15  18
BRANCH  16  24
ATOM     24  C   UNL     1      20.731  10.155  57.571  1.00  0.00     0.416 C 
ATOM     25  F   UNL     1      21.527  11.242  57.609  1.00  0.00    -0.166 F 
ATOM     26  F   UNL     1      19.673  10.564  58.261  1.00  0.00    -0.166 F 
ATOM     27  F   UNL     1      21.446   9.220  58.229  1.00  0.00    -0.166 F 
ENDBRANCH  16  24
ENDBRANCH  10  12
ENDBRANCH   1   8
BRANCH   6  28
ATOM     28  N   UNL     1      25.559   3.328  53.276  1.00  0.00    -0.324 N 
ATOM     29  H   UNL     1      25.309   3.037  54.231  1.00  0.00     0.170 HD
BRANCH  28  30
ATOM     30  C   UNL     1      26.771   2.925  52.711  1.00  0.00     0.227 A 
ATOM     31  N   UNL     1      27.442   3.468  51.704  1.00  0.00    -0.221 NA
ATOM     32  N   UNL     1      27.152   1.778  53.331  1.00  0.00    -0.213 NA
ATOM     33  C   UNL     1      28.575   2.846  51.326  1.00  0.00     0.117 A 
ATOM     34  C   UNL     1      28.268   1.179  52.899  1.00  0.00     0.077 A 
ATOM     35  C   UNL     1      28.995   1.703  51.889  1.00  0.00     0.049 A 
BRANCH  34  36
ATOM     36  C   UNL     1      28.661  -0.052  53.633  1.00  0.00     0.019 A 
ATOM     37  C   UNL     1      27.936  -0.509  54.746  1.00  0.00     0.013 A 
ATOM     38  C   UNL     1      29.792  -0.792  53.234  1.00  0.00     0.121 A 
ATOM     39  C   UNL     1      28.365  -1.652  55.407  1.00  0.00     0.021 A 
ATOM     40  N   UNL     1      30.214  -1.891  53.873  1.00  0.00    -0.264 NA
ATOM     41  C   UNL     1      29.488  -2.319  54.918  1.00  0.00     0.111 A 
ENDBRANCH  34  36
ENDBRANCH  28  30
ENDBRANCH   6  28
TORSDOF 7
ENDMDL
MODEL 16
REMARK VINA RESULT:   -10.820      4.541      8.007
REMARK INTER + INTRA:         -14.057
REMARK INTER:                 -12.908
REMARK INTRA:                  -1.149
REMARK CONF_INDEPENDENT:        2.088
REMARK UNBOUND:                -1.149
REMARK SMILES Cc1cn(-c2cc(NC(=O)c3ccc(C)c(Nc4nccc(-c5cccnc5)n4)c3)cc(C(F)(F)F)c2)cn1
REMARK SMILES IDX 11 1 12 2 13 3 14 4 15 5 16 6 30 7 9 8 10 9 8 10 7 12 6 13
REMARK SMILES IDX 31 14 5 15 32 16 37 17 4 18 3 19 38 20 2 21 39 22 1 23 33 24
REMARK SMILES IDX 34 25 35 26 36 27 17 28 18 30 19 31 29 32 20 33 22 34 21 35
REMARK SMILES IDX 23 36 24 37 28 38 25 39 27 40 26 41
REMARK H PARENT 8 11 17 29
ROOT
ATOM      1  C   UNL     1      33.961  -0.918  50.841  1.00  0.00     0.042 A 
ATOM      2  C   UNL     1      33.950  -2.091  50.071  1.00  0.00     0.014 A 
ATOM      3  C   UNL     1      34.920  -2.330  49.096  1.00  0.00     0.006 A 
ATOM      4  C   UNL     1      35.882  -1.380  48.793  1.00  0.00    -0.027 A 
ATOM      5  C   UNL     1      36.929  -1.651  47.722  1.00  0.00     0.046 C 
ATOM      6  C   UNL     1      35.835  -0.170  49.482  1.00  0.00     0.045 A 
ATOM      7  C   UNL     1      34.869   0.040  50.474  1.00  0.00     0.040 A 
ENDROOT
BRANCH   1   8
ATOM      8  C   UNL     1      32.907  -0.529  51.799  1.00  0.00     0.255 C 
ATOM      9  O   UNL     1      33.250   0.244  52.660  1.00  0.00    -0.269 OA
ATOM     10  N   UNL     1      31.652  -0.866  51.467  1.00  0.00    -0.322 N 
ATOM     11  H   UNL     1      31.528  -1.424  50.611  1.00  0.00     0.170 HD
BRANCH  10  12
ATOM     12  C   UNL     1      30.503  -0.531  52.174  1.00  0.00     0.044 A 
ATOM     13  C   UNL     1      29.725   0.594  51.805  1.00  0.00     0.052 A 
ATOM     14  C   UNL     1      30.153  -1.232  53.348  1.00  0.00     0.039 A 
ATOM     15  C   UNL     1      28.563   0.933  52.503  1.00  0.00     0.049 A 
ATOM     16  C   UNL     1      28.956  -0.899  54.045  1.00  0.00     0.060 A 
ATOM     17  C   UNL     1      28.202   0.200  53.629  1.00  0.00     0.039 A 
BRANCH  15  18
ATOM     18  N   UNL     1      27.762   2.020  52.120  1.00  0.00    -0.306 N 
ATOM     19  C   UNL     1      26.857   2.754  52.885  1.00  0.00     0.116 A 
ATOM     20  C   UNL     1      27.636   2.527  50.888  1.00  0.00     0.204 A 
ATOM     21  C   UNL     1      26.251   3.651  52.077  1.00  0.00     0.056 A 
ATOM     22  N   UNL     1      26.776   3.515  50.839  1.00  0.00    -0.242 NA
ATOM     23  C   UNL     1      25.211   4.680  52.447  1.00  0.00     0.068 C 
ENDBRANCH  15  18
BRANCH  16  24
ATOM     24  C   UNL     1      28.578  -1.697  55.250  1.00  0.00     0.416 C 
ATOM     25  F   UNL     1      27.735  -2.722  55.013  1.00  0.00    -0.166 F 
ATOM     26  F   UNL     1      29.633  -2.320  55.760  1.00  0.00    -0.166 F 
ATOM     27  F   UNL     1      27.921  -0.958  56.169  1.00  0.00    -0.166 F 
ENDBRANCH  16  24
ENDBRANCH  10  12
ENDBRANCH   1   8
BRANCH   6  28
ATOM     28  N   UNL     1      36.890   0.737  49.311  1.00  0.00    -0.324 N 
ATOM     29  H   UNL     1      36.700   1.703  49.011  1.00  0.00     0.170 HD
BRANCH  28  30
ATOM     30  C   UNL     1      38.200   0.318  49.549  1.00  0.00     0.227 A 
ATOM     31  N   UNL     1      38.651  -0.522  50.471  1.00  0.00    -0.221 NA
ATOM     32  N   UNL     1      39.010   0.997  48.695  1.00  0.00    -0.213 NA
ATOM     33  C   UNL     1      39.983  -0.720  50.511  1.00  0.00     0.117 A 
ATOM     34  C   UNL     1      40.329   0.791  48.794  1.00  0.00     0.077 A 
ATOM     35  C   UNL     1      40.835  -0.068  49.705  1.00  0.00     0.049 A 
BRANCH  34  36
ATOM     36  C   UNL     1      41.169   1.530  47.816  1.00  0.00     0.019 A 
ATOM     37  C   UNL     1      40.645   1.991  46.597  1.00  0.00     0.013 A 
ATOM     38  C   UNL     1      42.530   1.775  48.082  1.00  0.00     0.121 A 
ATOM     39  C   UNL     1      41.484   2.654  45.710  1.00  0.00     0.021 A 
ATOM     40  N   UNL     1      43.345   2.405  47.228  1.00  0.00    -0.264 NA
ATOM     41  C   UNL     1      42.812   2.858  46.081  1.00  0.00     0.111 A 
ENDBRANCH  34  36
ENDBRANCH  28  30
ENDBRANCH   6  28
TORSDOF 7
ENDMDL
MODEL 17
REMARK VINA RESULT:   -10.775      4.670     13.494
REMARK INTER + INTRA:         -14.202
REMARK INTER:                 -12.863
REMARK INTRA:                  -1.339
REMARK CONF_INDEPENDENT:        2.088
REMARK UNBOUND:                -1.339
REMARK SMILES Cc1cn(-c2cc(NC(=O)c3ccc(C)c(Nc4nccc(-c5cccnc5)n4)c3)cc(C(F)(F)F)c2)cn1
REMARK SMILES IDX 11 1 12 2 13 3 14 4 15 5 16 6 30 7 9 8 10 9 8 10 7 12 6 13
REMARK SMILES IDX 31 14 5 15 32 16 37 17 4 18 3 19 38 20 2 21 39 22 1 23 33 24
REMARK SMILES IDX 34 25 35 26 36 27 17 28 18 30 19 31 29 32 20 33 22 34 21 35
REMARK SMILES IDX 23 36 24 37 28 38 25 39 27 40 26 41
REMARK H PARENT 8 11 17 29
ROOT
ATOM      1  C   UNL     1      21.069   7.293  54.283  1.00  0.00     0.042 A 
ATOM      2  C   UNL     1      20.892   7.427  55.668  1.00  0.00     0.014 A 
ATOM      3  C   UNL     1      20.150   8.478  56.208  1.00  0.00     0.006 A 
ATOM      4  C   UNL     1      19.629   9.477  55.402  1.00  0.00    -0.027 A 
ATOM      5  C   UNL     1      18.827  10.622  56.005  1.00  0.00     0.046 C 
ATOM      6  C   UNL     1      19.889   9.406  54.034  1.00  0.00     0.045 A 
ATOM      7  C   UNL     1      20.615   8.329  53.510  1.00  0.00     0.040 A 
ENDROOT
BRANCH   1   8
ATOM      8  C   UNL     1      21.940   6.291  53.637  1.00  0.00     0.255 C 
ATOM      9  O   UNL     1      21.963   5.206  54.166  1.00  0.00    -0.269 OA
ATOM     10  N   UNL     1      22.401   6.606  52.417  1.00  0.00    -0.322 N 
ATOM     11  H   UNL     1      22.168   7.543  52.057  1.00  0.00     0.170 HD
BRANCH  10  12
ATOM     12  C   UNL     1      23.162   5.785  51.595  1.00  0.00     0.044 A 
ATOM     13  C   UNL     1      24.262   5.057  52.113  1.00  0.00     0.052 A 
ATOM     14  C   UNL     1      22.932   5.751  50.203  1.00  0.00     0.039 A 
ATOM     15  C   UNL     1      25.029   4.221  51.296  1.00  0.00     0.049 A 
ATOM     16  C   UNL     1      23.700   4.881  49.376  1.00  0.00     0.060 A 
ATOM     17  C   UNL     1      24.756   4.158  49.933  1.00  0.00     0.039 A 
BRANCH  15  18
ATOM     18  N   UNL     1      26.094   3.464  51.807  1.00  0.00    -0.306 N 
ATOM     19  C   UNL     1      26.462   3.256  53.135  1.00  0.00     0.116 A 
ATOM     20  C   UNL     1      27.049   2.848  51.102  1.00  0.00     0.204 A 
ATOM     21  C   UNL     1      27.601   2.531  53.149  1.00  0.00     0.056 A 
ATOM     22  N   UNL     1      27.935   2.258  51.867  1.00  0.00    -0.242 NA
ATOM     23  C   UNL     1      28.375   2.038  54.348  1.00  0.00     0.068 C 
ENDBRANCH  15  18
BRANCH  16  24
ATOM     24  C   UNL     1      23.395   4.819  47.914  1.00  0.00     0.416 C 
ATOM     25  F   UNL     1      22.456   5.689  47.491  1.00  0.00    -0.166 F 
ATOM     26  F   UNL     1      24.448   5.180  47.192  1.00  0.00    -0.166 F 
ATOM     27  F   UNL     1      22.901   3.620  47.543  1.00  0.00    -0.166 F 
ENDBRANCH  16  24
ENDBRANCH  10  12
ENDBRANCH   1   8
BRANCH   6  28
ATOM     28  N   UNL     1      19.240  10.310  53.184  1.00  0.00    -0.324 N 
ATOM     29  H   UNL     1      19.785  10.911  52.550  1.00  0.00     0.170 HD
BRANCH  28  30
ATOM     30  C   UNL     1      17.846  10.390  53.203  1.00  0.00     0.227 A 
ATOM     31  N   UNL     1      17.073  11.466  53.128  1.00  0.00    -0.221 NA
ATOM     32  N   UNL     1      17.364   9.136  53.398  1.00  0.00    -0.213 NA
ATOM     33  C   UNL     1      15.744  11.265  53.215  1.00  0.00     0.117 A 
ATOM     34  C   UNL     1      16.038   8.990  53.510  1.00  0.00     0.077 A 
ATOM     35  C   UNL     1      15.209  10.052  53.423  1.00  0.00     0.049 A 
BRANCH  34  36
ATOM     36  C   UNL     1      15.559   7.594  53.688  1.00  0.00     0.019 A 
ATOM     37  C   UNL     1      14.774   7.221  54.791  1.00  0.00     0.013 A 
ATOM     38  C   UNL     1      15.896   6.597  52.752  1.00  0.00     0.121 A 
ATOM     39  C   UNL     1      14.376   5.896  54.918  1.00  0.00     0.021 A 
ATOM     40  N   UNL     1      15.522   5.317  52.873  1.00  0.00    -0.264 NA
ATOM     41  C   UNL     1      14.751   4.993  53.924  1.00  0.00     0.111 A 
ENDBRANCH  34  36
ENDBRANCH  28  30
ENDBRANCH   6  28
TORSDOF 7
ENDMDL
MODEL 18
REMARK VINA RESULT:   -10.557      8.276     14.960
REMARK INTER + INTRA:         -14.000
REMARK INTER:                 -12.645
REMARK INTRA:                  -1.355
REMARK CONF_INDEPENDENT:        2.088
REMARK UNBOUND:                -1.355
REMARK SMILES Cc1cn(-c2cc(NC(=O)c3ccc(C)c(Nc4nccc(-c5cccnc5)n4)c3)cc(C(F)(F)F)c2)cn1
REMARK SMILES IDX 11 1 12 2 13 3 14 4 15 5 16 6 30 7 9 8 10 9 8 10 7 12 6 13
REMARK SMILES IDX 31 14 5 15 32 16 37 17 4 18 3 19 38 20 2 21 39 22 1 23 33 24
REMARK SMILES IDX 34 25 35 26 36 27 17 28 18 30 19 31 29 32 20 33 22 34 21 35
REMARK SMILES IDX 23 36 24 37 28 38 25 39 27 40 26 41
REMARK H PARENT 8 11 17 29
ROOT
ATOM      1  C   UNL     1      36.150  -1.553  49.447  1.00  0.00     0.042 A 
ATOM      2  C   UNL     1      35.468  -2.763  49.249  1.00  0.00     0.014 A 
ATOM      3  C   UNL     1      34.081  -2.847  49.386  1.00  0.00     0.006 A 
ATOM      4  C   UNL     1      33.334  -1.758  49.806  1.00  0.00    -0.027 A 
ATOM      5  C   UNL     1      31.823  -1.866  49.958  1.00  0.00     0.046 C 
ATOM      6  C   UNL     1      34.018  -0.581  50.105  1.00  0.00     0.045 A 
ATOM      7  C   UNL     1      35.407  -0.510  49.936  1.00  0.00     0.040 A 
ENDROOT
BRANCH   1   8
ATOM      8  C   UNL     1      37.618  -1.403  49.448  1.00  0.00     0.255 C 
ATOM      9  O   UNL     1      38.040  -0.433  50.028  1.00  0.00    -0.269 OA
ATOM     10  N   UNL     1      38.322  -2.468  49.034  1.00  0.00    -0.322 N 
ATOM     11  H   UNL     1      37.786  -3.276  48.688  1.00  0.00     0.170 HD
BRANCH  10  12
ATOM     12  C   UNL     1      39.707  -2.579  49.029  1.00  0.00     0.044 A 
ATOM     13  C   UNL     1      40.441  -2.564  50.241  1.00  0.00     0.052 A 
ATOM     14  C   UNL     1      40.422  -2.588  47.812  1.00  0.00     0.039 A 
ATOM     15  C   UNL     1      41.834  -2.685  50.247  1.00  0.00     0.049 A 
ATOM     16  C   UNL     1      41.839  -2.734  47.821  1.00  0.00     0.060 A 
ATOM     17  C   UNL     1      42.521  -2.745  49.040  1.00  0.00     0.039 A 
BRANCH  15  18
ATOM     18  N   UNL     1      42.566  -2.713  51.443  1.00  0.00    -0.306 N 
ATOM     19  C   UNL     1      42.653  -3.729  52.393  1.00  0.00     0.116 A 
ATOM     20  C   UNL     1      43.277  -1.709  51.972  1.00  0.00     0.204 A 
ATOM     21  C   UNL     1      43.406  -3.282  53.422  1.00  0.00     0.056 A 
ATOM     22  N   UNL     1      43.813  -2.028  53.124  1.00  0.00    -0.242 NA
ATOM     23  C   UNL     1      43.799  -4.024  54.677  1.00  0.00     0.068 C 
ENDBRANCH  15  18
BRANCH  16  24
ATOM     24  C   UNL     1      42.565  -2.801  46.517  1.00  0.00     0.416 C 
ATOM     25  F   UNL     1      42.367  -3.933  45.812  1.00  0.00    -0.166 F 
ATOM     26  F   UNL     1      42.123  -1.873  45.676  1.00  0.00    -0.166 F 
ATOM     27  F   UNL     1      43.904  -2.760  46.673  1.00  0.00    -0.166 F 
ENDBRANCH  16  24
ENDBRANCH  10  12
ENDBRANCH   1   8
BRANCH   6  28
ATOM     28  N   UNL     1      33.272   0.574  50.372  1.00  0.00    -0.324 N 
ATOM     29  H   UNL     1      32.863   1.118  49.600  1.00  0.00     0.170 HD
BRANCH  28  30
ATOM     30  C   UNL     1      33.088   0.982  51.695  1.00  0.00     0.227 A 
ATOM     31  N   UNL     1      33.774   1.878  52.393  1.00  0.00    -0.221 NA
ATOM     32  N   UNL     1      32.090   0.227  52.223  1.00  0.00    -0.213 NA
ATOM     33  C   UNL     1      33.412   2.051  53.678  1.00  0.00     0.117 A 
ATOM     34  C   UNL     1      31.787   0.413  53.513  1.00  0.00     0.077 A 
ATOM     35  C   UNL     1      32.445   1.325  54.261  1.00  0.00     0.049 A 
BRANCH  34  36
ATOM     36  C   UNL     1      30.666  -0.412  54.034  1.00  0.00     0.019 A 
ATOM     37  C   UNL     1      29.580   0.167  54.710  1.00  0.00     0.013 A 
ATOM     38  C   UNL     1      30.672  -1.811  53.875  1.00  0.00     0.121 A 
ATOM     39  C   UNL     1      28.572  -0.656  55.198  1.00  0.00     0.021 A 
ATOM     40  N   UNL     1      29.708  -2.610  54.349  1.00  0.00    -0.264 NA
ATOM     41  C   UNL     1      28.669  -2.028  54.969  1.00  0.00     0.111 A 
ENDBRANCH  34  36
ENDBRANCH  28  30
ENDBRANCH   6  28
TORSDOF 7
ENDMDL
MODEL 19
REMARK VINA RESULT:   -10.525      5.716     10.827
REMARK INTER + INTRA:         -13.779
REMARK INTER:                 -12.613
REMARK INTRA:                  -1.165
REMARK CONF_INDEPENDENT:        2.088
REMARK UNBOUND:                -1.165
REMARK SMILES Cc1cn(-c2cc(NC(=O)c3ccc(C)c(Nc4nccc(-c5cccnc5)n4)c3)cc(C(F)(F)F)c2)cn1
REMARK SMILES IDX 11 1 12 2 13 3 14 4 15 5 16 6 30 7 9 8 10 9 8 10 7 12 6 13
REMARK SMILES IDX 31 14 5 15 32 16 37 17 4 18 3 19 38 20 2 21 39 22 1 23 33 24
REMARK SMILES IDX 34 25 35 26 36 27 17 28 18 30 19 31 29 32 20 33 22 34 21 35
REMARK SMILES IDX 23 36 24 37 28 38 25 39 27 40 26 41
REMARK H PARENT 8 11 17 29
ROOT
ATOM      1  C   UNL     1      22.363   6.457  55.264  1.00  0.00     0.042 A 
ATOM      2  C   UNL     1      21.638   7.592  54.871  1.00  0.00     0.014 A 
ATOM      3  C   UNL     1      21.165   8.512  55.807  1.00  0.00     0.006 A 
ATOM      4  C   UNL     1      21.321   8.299  57.167  1.00  0.00    -0.027 A 
ATOM      5  C   UNL     1      20.793   9.308  58.177  1.00  0.00     0.046 C 
ATOM      6  C   UNL     1      21.950   7.121  57.568  1.00  0.00     0.045 A 
ATOM      7  C   UNL     1      22.440   6.222  56.612  1.00  0.00     0.040 A 
ENDROOT
BRANCH   1   8
ATOM      8  C   UNL     1      22.789   5.372  54.358  1.00  0.00     0.255 C 
ATOM      9  O   UNL     1      21.912   4.627  53.994  1.00  0.00    -0.269 OA
ATOM     10  N   UNL     1      24.024   5.480  53.845  1.00  0.00    -0.322 N 
ATOM     11  H   UNL     1      24.599   6.268  54.173  1.00  0.00     0.170 HD
BRANCH  10  12
ATOM     12  C   UNL     1      24.597   4.624  52.913  1.00  0.00     0.044 A 
ATOM     13  C   UNL     1      23.865   4.183  51.784  1.00  0.00     0.052 A 
ATOM     14  C   UNL     1      25.882   4.080  53.133  1.00  0.00     0.039 A 
ATOM     15  C   UNL     1      24.437   3.330  50.835  1.00  0.00     0.049 A 
ATOM     16  C   UNL     1      26.471   3.229  52.155  1.00  0.00     0.060 A 
ATOM     17  C   UNL     1      25.724   2.843  51.040  1.00  0.00     0.039 A 
BRANCH  15  18
ATOM     18  N   UNL     1      23.734   2.921  49.692  1.00  0.00    -0.306 N 
ATOM     19  C   UNL     1      22.921   1.802  49.517  1.00  0.00     0.116 A 
ATOM     20  C   UNL     1      23.776   3.487  48.480  1.00  0.00     0.204 A 
ATOM     21  C   UNL     1      22.524   1.766  48.227  1.00  0.00     0.056 A 
ATOM     22  N   UNL     1      23.043   2.847  47.602  1.00  0.00    -0.242 NA
ATOM     23  C   UNL     1      21.620   0.757  47.561  1.00  0.00     0.068 C 
ENDBRANCH  15  18
BRANCH  16  24
ATOM     24  C   UNL     1      27.855   2.716  52.385  1.00  0.00     0.416 C 
ATOM     25  F   UNL     1      28.010   1.391  52.194  1.00  0.00    -0.166 F 
ATOM     26  F   UNL     1      28.705   3.222  51.499  1.00  0.00    -0.166 F 
ATOM     27  F   UNL     1      28.266   2.900  53.657  1.00  0.00    -0.166 F 
ENDBRANCH  16  24
ENDBRANCH  10  12
ENDBRANCH   1   8
BRANCH   6  28
ATOM     28  N   UNL     1      22.263   6.961  58.924  1.00  0.00    -0.324 N 
ATOM     29  H   UNL     1      21.714   6.317  59.511  1.00  0.00     0.170 HD
BRANCH  28  30
ATOM     30  C   UNL     1      23.326   7.681  59.473  1.00  0.00     0.227 A 
ATOM     31  N   UNL     1      23.588   8.979  59.382  1.00  0.00    -0.221 NA
ATOM     32  N   UNL     1      24.150   6.794  60.089  1.00  0.00    -0.213 NA
ATOM     33  C   UNL     1      24.716   9.412  59.976  1.00  0.00     0.117 A 
ATOM     34  C   UNL     1      25.275   7.267  60.636  1.00  0.00     0.077 A 
ATOM     35  C   UNL     1      25.577   8.582  60.586  1.00  0.00     0.049 A 
BRANCH  34  36
ATOM     36  C   UNL     1      26.124   6.263  61.329  1.00  0.00     0.019 A 
ATOM     37  C   UNL     1      26.484   6.408  62.678  1.00  0.00     0.013 A 
ATOM     38  C   UNL     1      26.607   5.135  60.636  1.00  0.00     0.121 A 
ATOM     39  C   UNL     1      27.301   5.451  63.266  1.00  0.00     0.021 A 
ATOM     40  N   UNL     1      27.401   4.213  61.195  1.00  0.00    -0.264 NA
ATOM     41  C   UNL     1      27.709   4.364  62.494  1.00  0.00     0.111 A 
ENDBRANCH  34  36
ENDBRANCH  28  30
ENDBRANCH   6  28
TORSDOF 7
ENDMDL
MODEL 20
REMARK VINA RESULT:   -10.505      5.185      8.051
REMARK INTER + INTRA:         -13.783
REMARK INTER:                 -12.593
REMARK INTRA:                  -1.189
REMARK CONF_INDEPENDENT:        2.088
REMARK UNBOUND:                -1.189
REMARK SMILES Cc1cn(-c2cc(NC(=O)c3ccc(C)c(Nc4nccc(-c5cccnc5)n4)c3)cc(C(F)(F)F)c2)cn1
REMARK SMILES IDX 11 1 12 2 13 3 14 4 15 5 16 6 30 7 9 8 10 9 8 10 7 12 6 13
REMARK SMILES IDX 31 14 5 15 32 16 37 17 4 18 3 19 38 20 2 21 39 22 1 23 33 24
REMARK SMILES IDX 34 25 35 26 36 27 17 28 18 30 19 31 29 32 20 33 22 34 21 35
REMARK SMILES IDX 23 36 24 37 28 38 25 39 27 40 26 41
REMARK H PARENT 8 11 17 29
ROOT
ATOM      1  C   UNL     1      24.392   6.032  54.100  1.00  0.00     0.042 A 
ATOM      2  C   UNL     1      23.804   6.678  53.003  1.00  0.00     0.014 A 
ATOM      3  C   UNL     1      23.704   6.052  51.759  1.00  0.00     0.006 A 
ATOM      4  C   UNL     1      24.256   4.801  51.537  1.00  0.00    -0.027 A 
ATOM      5  C   UNL     1      24.147   4.134  50.174  1.00  0.00     0.046 C 
ATOM      6  C   UNL     1      24.934   4.198  52.596  1.00  0.00     0.045 A 
ATOM      7  C   UNL     1      25.001   4.831  53.843  1.00  0.00     0.040 A 
ENDROOT
BRANCH   1   8
ATOM      8  C   UNL     1      24.653   6.662  55.409  1.00  0.00     0.255 C 
ATOM      9  O   UNL     1      25.523   7.498  55.418  1.00  0.00    -0.269 OA
ATOM     10  N   UNL     1      23.745   6.428  56.369  1.00  0.00    -0.322 N 
ATOM     11  H   UNL     1      22.980   5.779  56.141  1.00  0.00     0.170 HD
BRANCH  10  12
ATOM     12  C   UNL     1      23.745   6.982  57.644  1.00  0.00     0.044 A 
ATOM     13  C   UNL     1      24.673   6.551  58.624  1.00  0.00     0.052 A 
ATOM     14  C   UNL     1      22.742   7.899  58.027  1.00  0.00     0.039 A 
ATOM     15  C   UNL     1      24.686   7.109  59.905  1.00  0.00     0.049 A 
ATOM     16  C   UNL     1      22.771   8.482  59.326  1.00  0.00     0.060 A 
ATOM     17  C   UNL     1      23.723   8.051  60.253  1.00  0.00     0.039 A 
BRANCH  15  18
ATOM     18  N   UNL     1      25.628   6.720  60.870  1.00  0.00    -0.306 N 
ATOM     19  C   UNL     1      26.025   5.436  61.238  1.00  0.00     0.116 A 
ATOM     20  C   UNL     1      26.286   7.521  61.716  1.00  0.00     0.204 A 
ATOM     21  C   UNL     1      26.892   5.541  62.269  1.00  0.00     0.056 A 
ATOM     22  N   UNL     1      27.067   6.856  62.531  1.00  0.00    -0.242 NA
ATOM     23  C   UNL     1      27.608   4.430  62.998  1.00  0.00     0.068 C 
ENDBRANCH  15  18
BRANCH  16  24
ATOM     24  C   UNL     1      21.733   9.495  59.685  1.00  0.00     0.416 C 
ATOM     25  F   UNL     1      22.162  10.773  59.693  1.00  0.00    -0.166 F 
ATOM     26  F   UNL     1      20.768   9.534  58.773  1.00  0.00    -0.166 F 
ATOM     27  F   UNL     1      21.254   9.318  60.934  1.00  0.00    -0.166 F 
ENDBRANCH  16  24
ENDBRANCH  10  12
ENDBRANCH   1   8
BRANCH   6  28
ATOM     28  N   UNL     1      25.357   2.871  52.446  1.00  0.00    -0.324 N 
ATOM     29  H   UNL     1      24.684   2.097  52.540  1.00  0.00     0.170 HD
BRANCH  28  30
ATOM     30  C   UNL     1      26.700   2.605  52.168  1.00  0.00     0.227 A 
ATOM     31  N   UNL     1      27.511   3.222  51.318  1.00  0.00    -0.221 NA
ATOM     32  N   UNL     1      27.059   1.507  52.881  1.00  0.00    -0.213 NA
ATOM     33  C   UNL     1      28.760   2.731  51.210  1.00  0.00     0.117 A 
ATOM     34  C   UNL     1      28.301   1.037  52.716  1.00  0.00     0.077 A 
ATOM     35  C   UNL     1      29.170   1.640  51.877  1.00  0.00     0.049 A 
BRANCH  34  36
ATOM     36  C   UNL     1      28.656  -0.144  53.545  1.00  0.00     0.019 A 
ATOM     37  C   UNL     1      27.882  -0.525  54.652  1.00  0.00     0.013 A 
ATOM     38  C   UNL     1      29.799  -0.911  53.245  1.00  0.00     0.121 A 
ATOM     39  C   UNL     1      28.276  -1.624  55.406  1.00  0.00     0.021 A 
ATOM     40  N   UNL     1      30.188  -1.966  53.972  1.00  0.00    -0.264 NA
ATOM     41  C   UNL     1      29.415  -2.323  55.011  1.00  0.00     0.111 A 
ENDBRANCH  34  36
ENDBRANCH  28  30
ENDBRANCH   6  28
TORSDOF 7
ENDMDL
