MODEL 1
REMARK VINA RESULT:   -14.418      0.000      0.000
REMARK INTER + INTRA:         -17.672
REMARK INTER:                 -16.506
REMARK INTRA:                  -1.166
REMARK CONF_INDEPENDENT:        2.088
REMARK UNBOUND:                -1.166
REMARK SMILES Cc1cn(-c2cc(NC(=O)c3ccc(C)c(Nc4nccc(-c5cccnc5)n4)c3)cc(C(F)(F)F)c2)cn1
REMARK SMILES IDX 11 1 12 2 13 3 14 4 15 5 16 6 30 7 9 8 10 9 8 10 7 12 6 13
REMARK SMILES IDX 31 14 5 15 32 16 37 17 4 18 3 19 38 20 2 21 39 22 1 23 33 24
REMARK SMILES IDX 34 25 35 26 36 27 17 28 18 30 19 31 29 32 20 33 22 34 21 35
REMARK SMILES IDX 23 36 24 37 28 38 25 39 27 40 26 41
REMARK H PARENT 8 11 17 29
ROOT
ATOM      1  C   UNL     1      27.945   1.693  53.084  1.00  0.00     0.042 A 
ATOM      2  C   UNL     1      27.641   1.152  54.343  1.00  0.00     0.014 A 
ATOM      3  C   UNL     1      28.351   0.067  54.858  1.00  0.00     0.006 A 
ATOM      4  C   UNL     1      29.329  -0.572  54.112  1.00  0.00    -0.027 A 
ATOM      5  C   UNL     1      30.090  -1.759  54.684  1.00  0.00     0.046 C 
ATOM      6  C   UNL     1      29.564  -0.104  52.820  1.00  0.00     0.045 A 
ATOM      7  C   UNL     1      28.858   1.002  52.331  1.00  0.00     0.040 A 
ENDROOT
BRANCH   1   8
ATOM      8  C   UNL     1      27.167   2.752  52.411  1.00  0.00     0.255 C 
ATOM      9  O   UNL     1      27.464   2.961  51.260  1.00  0.00    -0.269 OA
ATOM     10  N   UNL     1      26.071   3.181  53.055  1.00  0.00    -0.322 N 
ATOM     11  H   UNL     1      25.896   2.789  53.991  1.00  0.00     0.170 HD
BRANCH  10  12
ATOM     12  C   UNL     1      25.151   4.104  52.574  1.00  0.00     0.044 A 
ATOM     13  C   UNL     1      24.228   4.732  53.446  1.00  0.00     0.052 A 
ATOM     14  C   UNL     1      25.037   4.348  51.188  1.00  0.00     0.039 A 
ATOM     15  C   UNL     1      23.305   5.670  52.974  1.00  0.00     0.049 A 
ATOM     16  C   UNL     1      24.112   5.321  50.712  1.00  0.00     0.060 A 
ATOM     17  C   UNL     1      23.239   5.939  51.610  1.00  0.00     0.039 A 
BRANCH  15  18
ATOM     18  N   UNL     1      22.415   6.328  53.835  1.00  0.00    -0.306 N 
ATOM     19  C   UNL     1      22.135   6.063  55.175  1.00  0.00     0.116 A 
ATOM     20  C   UNL     1      21.566   7.311  53.512  1.00  0.00     0.204 A 
ATOM     21  C   UNL     1      21.149   6.896  55.573  1.00  0.00     0.056 A 
ATOM     22  N   UNL     1      20.829   7.691  54.527  1.00  0.00    -0.242 NA
ATOM     23  C   UNL     1      20.518   7.002  56.940  1.00  0.00     0.068 C 
ENDBRANCH  15  18
BRANCH  16  24
ATOM     24  C   UNL     1      24.053   5.603  49.245  1.00  0.00     0.416 C 
ATOM     25  F   UNL     1      24.864   6.593  48.823  1.00  0.00    -0.166 F 
ATOM     26  F   UNL     1      24.494   4.566  48.542  1.00  0.00    -0.166 F 
ATOM     27  F   UNL     1      22.829   6.010  48.850  1.00  0.00    -0.166 F 
ENDBRANCH  16  24
ENDBRANCH  10  12
ENDBRANCH   1   8
BRANCH   6  28
ATOM     28  N   UNL     1      30.654  -0.625  52.111  1.00  0.00    -0.324 N 
ATOM     29  H   UNL     1      30.528  -1.434  51.486  1.00  0.00     0.170 HD
BRANCH  28  30
ATOM     30  C   UNL     1      31.912  -0.038  52.257  1.00  0.00     0.227 A 
ATOM     31  N   UNL     1      32.292   0.921  53.091  1.00  0.00    -0.221 NA
ATOM     32  N   UNL     1      32.727  -0.570  51.309  1.00  0.00    -0.213 NA
ATOM     33  C   UNL     1      33.568   1.339  52.993  1.00  0.00     0.117 A 
ATOM     34  C   UNL     1      33.977  -0.101  51.229  1.00  0.00     0.077 A 
ATOM     35  C   UNL     1      34.416   0.862  52.068  1.00  0.00     0.049 A 
BRANCH  34  36
ATOM     36  C   UNL     1      34.839  -0.740  50.201  1.00  0.00     0.019 A 
ATOM     37  C   UNL     1      36.149  -0.296  49.960  1.00  0.00     0.013 A 
ATOM     38  C   UNL     1      34.352  -1.808  49.423  1.00  0.00     0.121 A 
ATOM     39  C   UNL     1      36.900  -0.915  48.968  1.00  0.00     0.021 A 
ATOM     40  N   UNL     1      35.068  -2.403  48.460  1.00  0.00    -0.264 NA
ATOM     41  C   UNL     1      36.326  -1.976  48.268  1.00  0.00     0.111 A 
ENDBRANCH  34  36
ENDBRANCH  28  30
ENDBRANCH   6  28
TORSDOF 7
ENDMDL
MODEL 2
REMARK VINA RESULT:   -14.150      1.161      1.658
REMARK INTER + INTRA:         -17.480
REMARK INTER:                 -16.238
REMARK INTRA:                  -1.241
REMARK CONF_INDEPENDENT:        2.088
REMARK UNBOUND:                -1.241
REMARK SMILES Cc1cn(-c2cc(NC(=O)c3ccc(C)c(Nc4nccc(-c5cccnc5)n4)c3)cc(C(F)(F)F)c2)cn1
REMARK SMILES IDX 11 1 12 2 13 3 14 4 15 5 16 6 30 7 9 8 10 9 8 10 7 12 6 13
REMARK SMILES IDX 31 14 5 15 32 16 37 17 4 18 3 19 38 20 2 21 39 22 1 23 33 24
REMARK SMILES IDX 34 25 35 26 36 27 17 28 18 30 19 31 29 32 20 33 22 34 21 35
REMARK SMILES IDX 23 36 24 37 28 38 25 39 27 40 26 41
REMARK H PARENT 8 11 17 29
ROOT
ATOM      1  C   UNL     1      27.898   1.734  52.969  1.00  0.00     0.042 A 
ATOM      2  C   UNL     1      27.414   1.287  54.208  1.00  0.00     0.014 A 
ATOM      3  C   UNL     1      27.995   0.202  54.866  1.00  0.00     0.006 A 
ATOM      4  C   UNL     1      29.019  -0.527  54.284  1.00  0.00    -0.027 A 
ATOM      5  C   UNL     1      29.638  -1.713  55.011  1.00  0.00     0.046 C 
ATOM      6  C   UNL     1      29.435  -0.152  53.008  1.00  0.00     0.045 A 
ATOM      7  C   UNL     1      28.856   0.955  52.374  1.00  0.00     0.040 A 
ENDROOT
BRANCH   1   8
ATOM      8  C   UNL     1      27.268   2.786  52.147  1.00  0.00     0.255 C 
ATOM      9  O   UNL     1      27.949   3.222  51.252  1.00  0.00    -0.269 OA
ATOM     10  N   UNL     1      25.949   2.959  52.318  1.00  0.00    -0.322 N 
ATOM     11  H   UNL     1      25.494   2.396  53.050  1.00  0.00     0.170 HD
BRANCH  10  12
ATOM     12  C   UNL     1      25.140   3.828  51.597  1.00  0.00     0.044 A 
ATOM     13  C   UNL     1      24.430   4.868  52.246  1.00  0.00     0.052 A 
ATOM     14  C   UNL     1      24.911   3.620  50.219  1.00  0.00     0.039 A 
ATOM     15  C   UNL     1      23.622   5.754  51.528  1.00  0.00     0.049 A 
ATOM     16  C   UNL     1      24.105   4.537  49.485  1.00  0.00     0.060 A 
ATOM     17  C   UNL     1      23.448   5.568  50.161  1.00  0.00     0.039 A 
BRANCH  15  18
ATOM     18  N   UNL     1      22.948   6.813  52.156  1.00  0.00    -0.306 N 
ATOM     19  C   UNL     1      22.881   8.153  51.780  1.00  0.00     0.116 A 
ATOM     20  C   UNL     1      22.293   6.767  53.322  1.00  0.00     0.204 A 
ATOM     21  C   UNL     1      22.193   8.824  52.729  1.00  0.00     0.056 A 
ATOM     22  N   UNL     1      21.806   7.933  53.669  1.00  0.00    -0.242 NA
ATOM     23  C   UNL     1      21.841  10.292  52.760  1.00  0.00     0.068 C 
ENDBRANCH  15  18
BRANCH  16  24
ATOM     24  C   UNL     1      23.930   4.327  48.016  1.00  0.00     0.416 C 
ATOM     25  F   UNL     1      22.658   4.412  47.577  1.00  0.00    -0.166 F 
ATOM     26  F   UNL     1      24.525   5.290  47.322  1.00  0.00    -0.166 F 
ATOM     27  F   UNL     1      24.315   3.096  47.624  1.00  0.00    -0.166 F 
ENDBRANCH  16  24
ENDBRANCH  10  12
ENDBRANCH   1   8
BRANCH   6  28
ATOM     28  N   UNL     1      30.572  -0.768  52.469  1.00  0.00    -0.324 N 
ATOM     29  H   UNL     1      30.499  -1.693  52.022  1.00  0.00     0.170 HD
BRANCH  28  30
ATOM     30  C   UNL     1      31.805  -0.118  52.542  1.00  0.00     0.227 A 
ATOM     31  N   UNL     1      32.174   0.882  53.333  1.00  0.00    -0.221 NA
ATOM     32  N   UNL     1      32.603  -0.637  51.573  1.00  0.00    -0.213 NA
ATOM     33  C   UNL     1      33.422   1.358  53.166  1.00  0.00     0.117 A 
ATOM     34  C   UNL     1      33.824  -0.110  51.425  1.00  0.00     0.077 A 
ATOM     35  C   UNL     1      34.251   0.897  52.217  1.00  0.00     0.049 A 
BRANCH  34  36
ATOM     36  C   UNL     1      34.670  -0.736  50.375  1.00  0.00     0.019 A 
ATOM     37  C   UNL     1      35.963  -0.266  50.096  1.00  0.00     0.013 A 
ATOM     38  C   UNL     1      34.184  -1.818  49.616  1.00  0.00     0.121 A 
ATOM     39  C   UNL     1      36.698  -0.874  49.086  1.00  0.00     0.021 A 
ATOM     40  N   UNL     1      34.885  -2.403  48.636  1.00  0.00    -0.264 NA
ATOM     41  C   UNL     1      36.128  -1.950  48.407  1.00  0.00     0.111 A 
ENDBRANCH  34  36
ENDBRANCH  28  30
ENDBRANCH   6  28
TORSDOF 7
ENDMDL
MODEL 3
REMARK VINA RESULT:   -13.322      2.277      3.657
REMARK INTER + INTRA:         -16.642
REMARK INTER:                 -15.410
REMARK INTRA:                  -1.232
REMARK CONF_INDEPENDENT:        2.088
REMARK UNBOUND:                -1.232
REMARK SMILES Cc1cn(-c2cc(NC(=O)c3ccc(C)c(Nc4nccc(-c5cccnc5)n4)c3)cc(C(F)(F)F)c2)cn1
REMARK SMILES IDX 11 1 12 2 13 3 14 4 15 5 16 6 30 7 9 8 10 9 8 10 7 12 6 13
REMARK SMILES IDX 31 14 5 15 32 16 37 17 4 18 3 19 38 20 2 21 39 22 1 23 33 24
REMARK SMILES IDX 34 25 35 26 36 27 17 28 18 30 19 31 29 32 20 33 22 34 21 35
REMARK SMILES IDX 23 36 24 37 28 38 25 39 27 40 26 41
REMARK H PARENT 8 11 17 29
ROOT
ATOM      1  C   UNL     1      28.334   1.473  53.532  1.00  0.00     0.042 A 
ATOM      2  C   UNL     1      27.997   0.806  54.719  1.00  0.00     0.014 A 
ATOM      3  C   UNL     1      28.661  -0.357  55.113  1.00  0.00     0.006 A 
ATOM      4  C   UNL     1      29.622  -0.945  54.306  1.00  0.00    -0.027 A 
ATOM      5  C   UNL     1      30.332  -2.217  54.745  1.00  0.00     0.046 C 
ATOM      6  C   UNL     1      29.888  -0.344  53.077  1.00  0.00     0.045 A 
ATOM      7  C   UNL     1      29.229   0.837  52.711  1.00  0.00     0.040 A 
ENDROOT
BRANCH   1   8
ATOM      8  C   UNL     1      27.604   2.630  52.978  1.00  0.00     0.255 C 
ATOM      9  O   UNL     1      28.091   3.126  51.992  1.00  0.00    -0.269 OA
ATOM     10  N   UNL     1      26.372   2.840  53.465  1.00  0.00    -0.322 N 
ATOM     11  H   UNL     1      26.060   2.224  54.229  1.00  0.00     0.170 HD
BRANCH  10  12
ATOM     12  C   UNL     1      25.479   3.813  53.034  1.00  0.00     0.044 A 
ATOM     13  C   UNL     1      25.246   4.024  51.652  1.00  0.00     0.052 A 
ATOM     14  C   UNL     1      24.875   4.694  53.957  1.00  0.00     0.039 A 
ATOM     15  C   UNL     1      24.342   4.994  51.209  1.00  0.00     0.049 A 
ATOM     16  C   UNL     1      23.938   5.666  53.505  1.00  0.00     0.060 A 
ATOM     17  C   UNL     1      23.714   5.820  52.135  1.00  0.00     0.039 A 
BRANCH  15  18
ATOM     18  N   UNL     1      24.072   5.183  49.845  1.00  0.00    -0.306 N 
ATOM     19  C   UNL     1      23.711   6.351  49.177  1.00  0.00     0.116 A 
ATOM     20  C   UNL     1      24.017   4.236  48.900  1.00  0.00     0.204 A 
ATOM     21  C   UNL     1      23.468   6.042  47.885  1.00  0.00     0.056 A 
ATOM     22  N   UNL     1      23.697   4.719  47.725  1.00  0.00    -0.242 NA
ATOM     23  C   UNL     1      23.066   6.972  46.766  1.00  0.00     0.068 C 
ENDBRANCH  15  18
BRANCH  16  24
ATOM     24  C   UNL     1      23.268   6.545  54.511  1.00  0.00     0.416 C 
ATOM     25  F   UNL     1      23.188   7.845  54.168  1.00  0.00    -0.166 F 
ATOM     26  F   UNL     1      21.988   6.219  54.652  1.00  0.00    -0.166 F 
ATOM     27  F   UNL     1      23.926   6.571  55.688  1.00  0.00    -0.166 F 
ENDBRANCH  16  24
ENDBRANCH  10  12
ENDBRANCH   1   8
BRANCH   6  28
ATOM     28  N   UNL     1      30.964  -0.824  52.319  1.00  0.00    -0.324 N 
ATOM     29  H   UNL     1      30.849  -1.654  51.721  1.00  0.00     0.170 HD
BRANCH  28  30
ATOM     30  C   UNL     1      32.195  -0.166  52.382  1.00  0.00     0.227 A 
ATOM     31  N   UNL     1      32.559   0.846  53.158  1.00  0.00    -0.221 NA
ATOM     32  N   UNL     1      32.994  -0.696  51.420  1.00  0.00    -0.213 NA
ATOM     33  C   UNL     1      33.805   1.326  52.983  1.00  0.00     0.117 A 
ATOM     34  C   UNL     1      34.212  -0.165  51.262  1.00  0.00     0.077 A 
ATOM     35  C   UNL     1      34.635   0.854  52.039  1.00  0.00     0.049 A 
BRANCH  34  36
ATOM     36  C   UNL     1      35.060  -0.803  50.221  1.00  0.00     0.019 A 
ATOM     37  C   UNL     1      36.394  -0.413  50.019  1.00  0.00     0.013 A 
ATOM     38  C   UNL     1      34.536  -1.814  49.392  1.00  0.00     0.121 A 
ATOM     39  C   UNL     1      37.131  -1.026  49.014  1.00  0.00     0.021 A 
ATOM     40  N   UNL     1      35.239  -2.403  48.416  1.00  0.00    -0.264 NA
ATOM     41  C   UNL     1      36.520  -2.029  48.262  1.00  0.00     0.111 A 
ENDBRANCH  34  36
ENDBRANCH  28  30
ENDBRANCH   6  28
TORSDOF 7
ENDMDL
MODEL 4
REMARK VINA RESULT:   -12.358      1.260      1.932
REMARK INTER + INTRA:         -15.815
REMARK INTER:                 -14.446
REMARK INTRA:                  -1.369
REMARK CONF_INDEPENDENT:        2.088
REMARK UNBOUND:                -1.369
REMARK SMILES Cc1cn(-c2cc(NC(=O)c3ccc(C)c(Nc4nccc(-c5cccnc5)n4)c3)cc(C(F)(F)F)c2)cn1
REMARK SMILES IDX 11 1 12 2 13 3 14 4 15 5 16 6 30 7 9 8 10 9 8 10 7 12 6 13
REMARK SMILES IDX 31 14 5 15 32 16 37 17 4 18 3 19 38 20 2 21 39 22 1 23 33 24
REMARK SMILES IDX 34 25 35 26 36 27 17 28 18 30 19 31 29 32 20 33 22 34 21 35
REMARK SMILES IDX 23 36 24 37 28 38 25 39 27 40 26 41
REMARK H PARENT 8 11 17 29
ROOT
ATOM      1  C   UNL     1      28.083   1.972  53.046  1.00  0.00     0.042 A 
ATOM      2  C   UNL     1      27.714   0.665  53.399  1.00  0.00     0.014 A 
ATOM      3  C   UNL     1      28.613  -0.198  54.027  1.00  0.00     0.006 A 
ATOM      4  C   UNL     1      29.929   0.172  54.251  1.00  0.00    -0.027 A 
ATOM      5  C   UNL     1      30.900  -0.783  54.930  1.00  0.00     0.046 C 
ATOM      6  C   UNL     1      30.329   1.432  53.808  1.00  0.00     0.045 A 
ATOM      7  C   UNL     1      29.406   2.293  53.202  1.00  0.00     0.040 A 
ENDROOT
BRANCH   1   8
ATOM      8  C   UNL     1      27.242   2.904  52.269  1.00  0.00     0.255 C 
ATOM      9  O   UNL     1      27.479   2.954  51.087  1.00  0.00    -0.269 OA
ATOM     10  N   UNL     1      26.163   3.394  52.899  1.00  0.00    -0.322 N 
ATOM     11  H   UNL     1      26.043   3.136  53.889  1.00  0.00     0.170 HD
BRANCH  10  12
ATOM     12  C   UNL     1      25.194   4.216  52.339  1.00  0.00     0.044 A 
ATOM     13  C   UNL     1      24.333   4.987  53.159  1.00  0.00     0.052 A 
ATOM     14  C   UNL     1      24.966   4.211  50.946  1.00  0.00     0.039 A 
ATOM     15  C   UNL     1      23.362   5.825  52.604  1.00  0.00     0.049 A 
ATOM     16  C   UNL     1      23.991   5.082  50.382  1.00  0.00     0.060 A 
ATOM     17  C   UNL     1      23.183   5.848  51.225  1.00  0.00     0.039 A 
BRANCH  15  18
ATOM     18  N   UNL     1      22.532   6.625  53.405  1.00  0.00    -0.306 N 
ATOM     19  C   UNL     1      21.997   6.347  54.662  1.00  0.00     0.116 A 
ATOM     20  C   UNL     1      21.999   7.807  53.077  1.00  0.00     0.204 A 
ATOM     21  C   UNL     1      21.188   7.371  55.012  1.00  0.00     0.056 A 
ATOM     22  N   UNL     1      21.228   8.289  54.021  1.00  0.00    -0.242 NA
ATOM     23  C   UNL     1      20.400   7.538  56.288  1.00  0.00     0.068 C 
ENDBRANCH  15  18
BRANCH  16  24
ATOM     24  C   UNL     1      23.811   5.099  48.898  1.00  0.00     0.416 C 
ATOM     25  F   UNL     1      23.613   3.892  48.334  1.00  0.00    -0.166 F 
ATOM     26  F   UNL     1      22.703   5.747  48.559  1.00  0.00    -0.166 F 
ATOM     27  F   UNL     1      24.900   5.570  48.256  1.00  0.00    -0.166 F 
ENDBRANCH  16  24
ENDBRANCH  10  12
ENDBRANCH   1   8
BRANCH   6  28
ATOM     28  N   UNL     1      31.604   1.890  54.166  1.00  0.00    -0.324 N 
ATOM     29  H   UNL     1      31.707   2.677  54.822  1.00  0.00     0.170 HD
BRANCH  28  30
ATOM     30  C   UNL     1      32.733   1.272  53.625  1.00  0.00     0.227 A 
ATOM     31  N   UNL     1      33.996   1.347  54.026  1.00  0.00    -0.221 NA
ATOM     32  N   UNL     1      32.341   0.601  52.511  1.00  0.00    -0.213 NA
ATOM     33  C   UNL     1      34.905   0.680  53.291  1.00  0.00     0.117 A 
ATOM     34  C   UNL     1      33.286  -0.020  51.795  1.00  0.00     0.077 A 
ATOM     35  C   UNL     1      34.582   0.012  52.172  1.00  0.00     0.049 A 
BRANCH  34  36
ATOM     36  C   UNL     1      32.802  -0.769  50.606  1.00  0.00     0.019 A 
ATOM     37  C   UNL     1      31.431  -0.921  50.340  1.00  0.00     0.013 A 
ATOM     38  C   UNL     1      33.716  -1.364  49.715  1.00  0.00     0.121 A 
ATOM     39  C   UNL     1      31.037  -1.653  49.228  1.00  0.00     0.021 A 
ATOM     40  N   UNL     1      33.341  -2.078  48.645  1.00  0.00    -0.264 NA
ATOM     41  C   UNL     1      32.025  -2.186  48.401  1.00  0.00     0.111 A 
ENDBRANCH  34  36
ENDBRANCH  28  30
ENDBRANCH   6  28
TORSDOF 7
ENDMDL
MODEL 5
REMARK VINA RESULT:   -12.203      1.591      3.574
REMARK INTER + INTRA:         -15.843
REMARK INTER:                 -14.291
REMARK INTRA:                  -1.552
REMARK CONF_INDEPENDENT:        2.088
REMARK UNBOUND:                -1.552
REMARK SMILES Cc1cn(-c2cc(NC(=O)c3ccc(C)c(Nc4nccc(-c5cccnc5)n4)c3)cc(C(F)(F)F)c2)cn1
REMARK SMILES IDX 11 1 12 2 13 3 14 4 15 5 16 6 30 7 9 8 10 9 8 10 7 12 6 13
REMARK SMILES IDX 31 14 5 15 32 16 37 17 4 18 3 19 38 20 2 21 39 22 1 23 33 24
REMARK SMILES IDX 34 25 35 26 36 27 17 28 18 30 19 31 29 32 20 33 22 34 21 35
REMARK SMILES IDX 23 36 24 37 28 38 25 39 27 40 26 41
REMARK H PARENT 8 11 17 29
ROOT
ATOM      1  C   UNL     1      27.513   1.791  52.834  1.00  0.00     0.042 A 
ATOM      2  C   UNL     1      27.208   1.201  54.069  1.00  0.00     0.014 A 
ATOM      3  C   UNL     1      27.906   0.084  54.533  1.00  0.00     0.006 A 
ATOM      4  C   UNL     1      28.871  -0.534  53.754  1.00  0.00    -0.027 A 
ATOM      5  C   UNL     1      29.618  -1.755  54.270  1.00  0.00     0.046 C 
ATOM      6  C   UNL     1      29.106  -0.014  52.483  1.00  0.00     0.045 A 
ATOM      7  C   UNL     1      28.412   1.122  52.046  1.00  0.00     0.040 A 
ENDROOT
BRANCH   1   8
ATOM      8  C   UNL     1      26.746   2.889  52.212  1.00  0.00     0.255 C 
ATOM      9  O   UNL     1      26.962   3.072  51.038  1.00  0.00    -0.269 OA
ATOM     10  N   UNL     1      25.731   3.386  52.935  1.00  0.00    -0.322 N 
ATOM     11  H   UNL     1      25.609   3.012  53.886  1.00  0.00     0.170 HD
BRANCH  10  12
ATOM     12  C   UNL     1      24.831   4.358  52.517  1.00  0.00     0.044 A 
ATOM     13  C   UNL     1      23.968   4.996  53.443  1.00  0.00     0.052 A 
ATOM     14  C   UNL     1      24.672   4.646  51.144  1.00  0.00     0.039 A 
ATOM     15  C   UNL     1      23.067   5.982  53.034  1.00  0.00     0.049 A 
ATOM     16  C   UNL     1      23.768   5.667  50.732  1.00  0.00     0.060 A 
ATOM     17  C   UNL     1      22.957   6.292  51.682  1.00  0.00     0.039 A 
BRANCH  15  18
ATOM     18  N   UNL     1      22.238   6.649  53.948  1.00  0.00    -0.306 N 
ATOM     19  C   UNL     1      21.930   6.305  55.263  1.00  0.00     0.116 A 
ATOM     20  C   UNL     1      21.484   7.728  53.707  1.00  0.00     0.204 A 
ATOM     21  C   UNL     1      21.024   7.192  55.730  1.00  0.00     0.056 A 
ATOM     22  N   UNL     1      20.782   8.093  54.752  1.00  0.00    -0.242 NA
ATOM     23  C   UNL     1      20.401   7.247  57.104  1.00  0.00     0.068 C 
ENDBRANCH  15  18
BRANCH  16  24
ATOM     24  C   UNL     1      23.663   5.993  49.278  1.00  0.00     0.416 C 
ATOM     25  F   UNL     1      24.828   6.314  48.680  1.00  0.00    -0.166 F 
ATOM     26  F   UNL     1      23.278   4.933  48.577  1.00  0.00    -0.166 F 
ATOM     27  F   UNL     1      22.886   7.072  49.049  1.00  0.00    -0.166 F 
ENDBRANCH  16  24
ENDBRANCH  10  12
ENDBRANCH   1   8
BRANCH   6  28
ATOM     28  N   UNL     1      30.184  -0.519  51.745  1.00  0.00    -0.324 N 
ATOM     29  H   UNL     1      30.039  -1.279  51.066  1.00  0.00     0.170 HD
BRANCH  28  30
ATOM     30  C   UNL     1      31.459   0.018  51.937  1.00  0.00     0.227 A 
ATOM     31  N   UNL     1      32.591  -0.280  51.312  1.00  0.00    -0.221 NA
ATOM     32  N   UNL     1      31.386   0.892  52.974  1.00  0.00    -0.213 NA
ATOM     33  C   UNL     1      33.699   0.363  51.726  1.00  0.00     0.117 A 
ATOM     34  C   UNL     1      32.519   1.483  53.371  1.00  0.00     0.077 A 
ATOM     35  C   UNL     1      33.693   1.225  52.755  1.00  0.00     0.049 A 
BRANCH  34  36
ATOM     36  C   UNL     1      32.380   2.456  54.485  1.00  0.00     0.019 A 
ATOM     37  C   UNL     1      33.318   3.481  54.688  1.00  0.00     0.013 A 
ATOM     38  C   UNL     1      31.300   2.363  55.385  1.00  0.00     0.121 A 
ATOM     39  C   UNL     1      33.150   4.347  55.761  1.00  0.00     0.021 A 
ATOM     40  N   UNL     1      31.138   3.190  56.426  1.00  0.00    -0.264 NA
ATOM     41  C   UNL     1      32.035   4.177  56.581  1.00  0.00     0.111 A 
ENDBRANCH  34  36
ENDBRANCH  28  30
ENDBRANCH   6  28
TORSDOF 7
ENDMDL
MODEL 6
REMARK VINA RESULT:   -11.552      4.145     11.230
REMARK INTER + INTRA:         -14.813
REMARK INTER:                 -13.640
REMARK INTRA:                  -1.174
REMARK CONF_INDEPENDENT:        2.088
REMARK UNBOUND:                -1.174
REMARK SMILES Cc1cn(-c2cc(NC(=O)c3ccc(C)c(Nc4nccc(-c5cccnc5)n4)c3)cc(C(F)(F)F)c2)cn1
REMARK SMILES IDX 11 1 12 2 13 3 14 4 15 5 16 6 30 7 9 8 10 9 8 10 7 12 6 13
REMARK SMILES IDX 31 14 5 15 32 16 37 17 4 18 3 19 38 20 2 21 39 22 1 23 33 24
REMARK SMILES IDX 34 25 35 26 36 27 17 28 18 30 19 31 29 32 20 33 22 34 21 35
REMARK SMILES IDX 23 36 24 37 28 38 25 39 27 40 26 41
REMARK H PARENT 8 11 17 29
ROOT
ATOM      1  C   UNL     1      25.860   3.870  52.086  1.00  0.00     0.042 A 
ATOM      2  C   UNL     1      25.251   4.370  50.926  1.00  0.00     0.014 A 
ATOM      3  C   UNL     1      24.128   5.195  50.992  1.00  0.00     0.006 A 
ATOM      4  C   UNL     1      23.520   5.486  52.203  1.00  0.00    -0.027 A 
ATOM      5  C   UNL     1      22.291   6.381  52.260  1.00  0.00     0.046 C 
ATOM      6  C   UNL     1      24.059   4.908  53.351  1.00  0.00     0.045 A 
ATOM      7  C   UNL     1      25.202   4.102  53.266  1.00  0.00     0.040 A 
ENDROOT
BRANCH   1   8
ATOM      8  C   UNL     1      26.968   2.894  52.104  1.00  0.00     0.255 C 
ATOM      9  O   UNL     1      27.668   2.886  51.121  1.00  0.00    -0.269 OA
ATOM     10  N   UNL     1      27.225   2.313  53.286  1.00  0.00    -0.322 N 
ATOM     11  H   UNL     1      26.594   2.541  54.066  1.00  0.00     0.170 HD
BRANCH  10  12
ATOM     12  C   UNL     1      28.266   1.432  53.552  1.00  0.00     0.044 A 
ATOM     13  C   UNL     1      29.568   1.670  53.046  1.00  0.00     0.052 A 
ATOM     14  C   UNL     1      28.023   0.219  54.232  1.00  0.00     0.039 A 
ATOM     15  C   UNL     1      30.623   0.795  53.317  1.00  0.00     0.049 A 
ATOM     16  C   UNL     1      29.104  -0.660  54.527  1.00  0.00     0.060 A 
ATOM     17  C   UNL     1      30.379  -0.372  54.033  1.00  0.00     0.039 A 
BRANCH  15  18
ATOM     18  N   UNL     1      31.925   1.043  52.855  1.00  0.00    -0.306 N 
ATOM     19  C   UNL     1      32.542   0.591  51.691  1.00  0.00     0.116 A 
ATOM     20  C   UNL     1      32.891   1.707  53.501  1.00  0.00     0.204 A 
ATOM     21  C   UNL     1      33.826   1.009  51.704  1.00  0.00     0.056 A 
ATOM     22  N   UNL     1      34.016   1.734  52.829  1.00  0.00    -0.242 NA
ATOM     23  C   UNL     1      34.887   0.785  50.653  1.00  0.00     0.068 C 
ENDBRANCH  15  18
BRANCH  16  24
ATOM     24  C   UNL     1      28.829  -1.908  55.301  1.00  0.00     0.416 C 
ATOM     25  F   UNL     1      27.948  -2.752  54.727  1.00  0.00    -0.166 F 
ATOM     26  F   UNL     1      29.917  -2.665  55.388  1.00  0.00    -0.166 F 
ATOM     27  F   UNL     1      28.280  -1.654  56.506  1.00  0.00    -0.166 F 
ENDBRANCH  16  24
ENDBRANCH  10  12
ENDBRANCH   1   8
BRANCH   6  28
ATOM     28  N   UNL     1      23.565   5.314  54.597  1.00  0.00    -0.324 N 
ATOM     29  H   UNL     1      22.872   4.737  55.094  1.00  0.00     0.170 HD
BRANCH  28  30
ATOM     30  C   UNL     1      24.020   6.508  55.160  1.00  0.00     0.227 A 
ATOM     31  N   UNL     1      24.045   7.723  54.627  1.00  0.00    -0.221 NA
ATOM     32  N   UNL     1      24.538   6.217  56.381  1.00  0.00    -0.213 NA
ATOM     33  C   UNL     1      24.583   8.703  55.379  1.00  0.00     0.117 A 
ATOM     34  C   UNL     1      25.090   7.217  57.077  1.00  0.00     0.077 A 
ATOM     35  C   UNL     1      25.124   8.474  56.586  1.00  0.00     0.049 A 
BRANCH  34  36
ATOM     36  C   UNL     1      25.610   6.854  58.421  1.00  0.00     0.019 A 
ATOM     37  C   UNL     1      24.754   6.691  59.522  1.00  0.00     0.013 A 
ATOM     38  C   UNL     1      26.992   6.676  58.630  1.00  0.00     0.121 A 
ATOM     39  C   UNL     1      25.299   6.376  60.760  1.00  0.00     0.021 A 
ATOM     40  N   UNL     1      27.524   6.380  59.823  1.00  0.00    -0.264 NA
ATOM     41  C   UNL     1      26.679   6.205  60.853  1.00  0.00     0.111 A 
ENDBRANCH  34  36
ENDBRANCH  28  30
ENDBRANCH   6  28
TORSDOF 7
ENDMDL
MODEL 7
REMARK VINA RESULT:   -11.485      2.135      3.121
REMARK INTER + INTRA:         -14.884
REMARK INTER:                 -13.573
REMARK INTRA:                  -1.311
REMARK CONF_INDEPENDENT:        2.088
REMARK UNBOUND:                -1.311
REMARK SMILES Cc1cn(-c2cc(NC(=O)c3ccc(C)c(Nc4nccc(-c5cccnc5)n4)c3)cc(C(F)(F)F)c2)cn1
REMARK SMILES IDX 11 1 12 2 13 3 14 4 15 5 16 6 30 7 9 8 10 9 8 10 7 12 6 13
REMARK SMILES IDX 31 14 5 15 32 16 37 17 4 18 3 19 38 20 2 21 39 22 1 23 33 24
REMARK SMILES IDX 34 25 35 26 36 27 17 28 18 30 19 31 29 32 20 33 22 34 21 35
REMARK SMILES IDX 23 36 24 37 28 38 25 39 27 40 26 41
REMARK H PARENT 8 11 17 29
ROOT
ATOM      1  C   UNL     1      26.994   2.400  52.408  1.00  0.00     0.042 A 
ATOM      2  C   UNL     1      27.150   1.028  52.157  1.00  0.00     0.014 A 
ATOM      3  C   UNL     1      27.929   0.221  52.988  1.00  0.00     0.006 A 
ATOM      4  C   UNL     1      28.647   0.759  54.044  1.00  0.00    -0.027 A 
ATOM      5  C   UNL     1      29.499  -0.131  54.937  1.00  0.00     0.046 C 
ATOM      6  C   UNL     1      28.578   2.138  54.236  1.00  0.00     0.045 A 
ATOM      7  C   UNL     1      27.770   2.927  53.407  1.00  0.00     0.040 A 
ENDROOT
BRANCH   1   8
ATOM      8  C   UNL     1      26.296   3.346  51.515  1.00  0.00     0.255 C 
ATOM      9  O   UNL     1      26.538   3.223  50.339  1.00  0.00    -0.269 OA
ATOM     10  N   UNL     1      25.300   4.055  52.067  1.00  0.00    -0.322 N 
ATOM     11  H   UNL     1      25.144   3.934  53.078  1.00  0.00     0.170 HD
BRANCH  10  12
ATOM     12  C   UNL     1      24.459   4.937  51.400  1.00  0.00     0.044 A 
ATOM     13  C   UNL     1      23.816   5.992  52.092  1.00  0.00     0.052 A 
ATOM     14  C   UNL     1      24.133   4.729  50.042  1.00  0.00     0.039 A 
ATOM     15  C   UNL     1      22.976   6.891  51.428  1.00  0.00     0.049 A 
ATOM     16  C   UNL     1      23.295   5.659  49.362  1.00  0.00     0.060 A 
ATOM     17  C   UNL     1      22.705   6.703  50.076  1.00  0.00     0.039 A 
BRANCH  15  18
ATOM     18  N   UNL     1      22.367   7.964  52.096  1.00  0.00    -0.306 N 
ATOM     19  C   UNL     1      21.495   7.937  53.182  1.00  0.00     0.116 A 
ATOM     20  C   UNL     1      22.431   9.257  51.759  1.00  0.00     0.204 A 
ATOM     21  C   UNL     1      21.095   9.203  53.434  1.00  0.00     0.056 A 
ATOM     22  N   UNL     1      21.717  10.018  52.552  1.00  0.00    -0.242 NA
ATOM     23  C   UNL     1      20.167   9.685  54.522  1.00  0.00     0.068 C 
ENDBRANCH  15  18
BRANCH  16  24
ATOM     24  C   UNL     1      23.015   5.448  47.909  1.00  0.00     0.416 C 
ATOM     25  F   UNL     1      23.689   6.264  47.075  1.00  0.00    -0.166 F 
ATOM     26  F   UNL     1      23.425   4.249  47.513  1.00  0.00    -0.166 F 
ATOM     27  F   UNL     1      21.723   5.680  47.597  1.00  0.00    -0.166 F 
ENDBRANCH  16  24
ENDBRANCH  10  12
ENDBRANCH   1   8
BRANCH   6  28
ATOM     28  N   UNL     1      29.160   2.681  55.389  1.00  0.00    -0.324 N 
ATOM     29  H   UNL     1      28.585   2.870  56.222  1.00  0.00     0.170 HD
BRANCH  28  30
ATOM     30  C   UNL     1      30.528   2.963  55.400  1.00  0.00     0.227 A 
ATOM     31  N   UNL     1      31.183   3.879  56.102  1.00  0.00    -0.221 NA
ATOM     32  N   UNL     1      31.120   2.166  54.475  1.00  0.00    -0.213 NA
ATOM     33  C   UNL     1      32.509   3.971  55.889  1.00  0.00     0.117 A 
ATOM     34  C   UNL     1      32.435   2.316  54.275  1.00  0.00     0.077 A 
ATOM     35  C   UNL     1      33.149   3.222  54.977  1.00  0.00     0.049 A 
BRANCH  34  36
ATOM     36  C   UNL     1      33.042   1.396  53.278  1.00  0.00     0.019 A 
ATOM     37  C   UNL     1      32.295   0.872  52.210  1.00  0.00     0.013 A 
ATOM     38  C   UNL     1      34.393   1.011  53.388  1.00  0.00     0.121 A 
ATOM     39  C   UNL     1      32.909  -0.003  51.323  1.00  0.00     0.021 A 
ATOM     40  N   UNL     1      34.987   0.162  52.541  1.00  0.00    -0.264 NA
ATOM     41  C   UNL     1      34.257  -0.304  51.515  1.00  0.00     0.111 A 
ENDBRANCH  34  36
ENDBRANCH  28  30
ENDBRANCH   6  28
TORSDOF 7
ENDMDL
MODEL 8
REMARK VINA RESULT:   -11.037      1.710      2.566
REMARK INTER + INTRA:         -14.301
REMARK INTER:                 -13.125
REMARK INTRA:                  -1.176
REMARK CONF_INDEPENDENT:        2.088
REMARK UNBOUND:                -1.176
REMARK SMILES Cc1cn(-c2cc(NC(=O)c3ccc(C)c(Nc4nccc(-c5cccnc5)n4)c3)cc(C(F)(F)F)c2)cn1
REMARK SMILES IDX 11 1 12 2 13 3 14 4 15 5 16 6 30 7 9 8 10 9 8 10 7 12 6 13
REMARK SMILES IDX 31 14 5 15 32 16 37 17 4 18 3 19 38 20 2 21 39 22 1 23 33 24
REMARK SMILES IDX 34 25 35 26 36 27 17 28 18 30 19 31 29 32 20 33 22 34 21 35
REMARK SMILES IDX 23 36 24 37 28 38 25 39 27 40 26 41
REMARK H PARENT 8 11 17 29
ROOT
ATOM      1  C   UNL     1      27.044   2.338  52.507  1.00  0.00     0.042 A 
ATOM      2  C   UNL     1      27.176   1.225  51.663  1.00  0.00     0.014 A 
ATOM      3  C   UNL     1      28.116   0.226  51.918  1.00  0.00     0.006 A 
ATOM      4  C   UNL     1      29.013   0.335  52.969  1.00  0.00    -0.027 A 
ATOM      5  C   UNL     1      30.039  -0.758  53.231  1.00  0.00     0.046 C 
ATOM      6  C   UNL     1      28.956   1.489  53.750  1.00  0.00     0.045 A 
ATOM      7  C   UNL     1      27.988   2.468  53.492  1.00  0.00     0.040 A 
ENDROOT
BRANCH   1   8
ATOM      8  C   UNL     1      26.169   3.498  52.244  1.00  0.00     0.255 C 
ATOM      9  O   UNL     1      26.024   3.784  51.080  1.00  0.00    -0.269 OA
ATOM     10  N   UNL     1      25.444   3.939  53.282  1.00  0.00    -0.322 N 
ATOM     11  H   UNL     1      25.602   3.482  54.191  1.00  0.00     0.170 HD
BRANCH  10  12
ATOM     12  C   UNL     1      24.499   4.957  53.244  1.00  0.00     0.044 A 
ATOM     13  C   UNL     1      23.760   5.307  54.401  1.00  0.00     0.052 A 
ATOM     14  C   UNL     1      24.168   5.583  52.022  1.00  0.00     0.039 A 
ATOM     15  C   UNL     1      22.815   6.336  54.374  1.00  0.00     0.049 A 
ATOM     16  C   UNL     1      23.221   6.647  52.002  1.00  0.00     0.060 A 
ATOM     17  C   UNL     1      22.537   6.980  53.173  1.00  0.00     0.039 A 
BRANCH  15  18
ATOM     18  N   UNL     1      22.108   6.719  55.524  1.00  0.00    -0.306 N 
ATOM     19  C   UNL     1      22.592   6.971  56.806  1.00  0.00     0.116 A 
ATOM     20  C   UNL     1      20.780   6.834  55.647  1.00  0.00     0.204 A 
ATOM     21  C   UNL     1      21.539   7.224  57.613  1.00  0.00     0.056 A 
ATOM     22  N   UNL     1      20.417   7.166  56.862  1.00  0.00    -0.242 NA
ATOM     23  C   UNL     1      21.557   7.571  59.082  1.00  0.00     0.068 C 
ENDBRANCH  15  18
BRANCH  16  24
ATOM     24  C   UNL     1      22.934   7.333  50.706  1.00  0.00     0.416 C 
ATOM     25  F   UNL     1      22.366   8.550  50.819  1.00  0.00    -0.166 F 
ATOM     26  F   UNL     1      24.058   7.613  50.055  1.00  0.00    -0.166 F 
ATOM     27  F   UNL     1      22.056   6.646  49.945  1.00  0.00    -0.166 F 
ENDBRANCH  16  24
ENDBRANCH  10  12
ENDBRANCH   1   8
BRANCH   6  28
ATOM     28  N   UNL     1      29.739   1.548  54.910  1.00  0.00    -0.324 N 
ATOM     29  H   UNL     1      29.367   1.200  55.805  1.00  0.00     0.170 HD
BRANCH  28  30
ATOM     30  C   UNL     1      31.027   2.082  54.843  1.00  0.00     0.227 A 
ATOM     31  N   UNL     1      31.550   3.085  55.538  1.00  0.00    -0.221 NA
ATOM     32  N   UNL     1      31.689   1.438  53.847  1.00  0.00    -0.213 NA
ATOM     33  C   UNL     1      32.817   3.431  55.241  1.00  0.00     0.117 A 
ATOM     34  C   UNL     1      32.934   1.839  53.568  1.00  0.00     0.077 A 
ATOM     35  C   UNL     1      33.516   2.842  54.259  1.00  0.00     0.049 A 
BRANCH  34  36
ATOM     36  C   UNL     1      33.628   1.080  52.494  1.00  0.00     0.019 A 
ATOM     37  C   UNL     1      34.426   1.724  51.536  1.00  0.00     0.013 A 
ATOM     38  C   UNL     1      33.486  -0.319  52.402  1.00  0.00     0.121 A 
ATOM     39  C   UNL     1      35.030   0.966  50.541  1.00  0.00     0.021 A 
ATOM     40  N   UNL     1      34.059  -1.054  51.440  1.00  0.00    -0.264 NA
ATOM     41  C   UNL     1      34.838  -0.415  50.552  1.00  0.00     0.111 A 
ENDBRANCH  34  36
ENDBRANCH  28  30
ENDBRANCH   6  28
TORSDOF 7
ENDMDL
MODEL 9
REMARK VINA RESULT:   -10.938      4.712      8.366
REMARK INTER + INTRA:         -14.104
REMARK INTER:                 -13.026
REMARK INTRA:                  -1.077
REMARK CONF_INDEPENDENT:        2.088
REMARK UNBOUND:                -1.077
REMARK SMILES Cc1cn(-c2cc(NC(=O)c3ccc(C)c(Nc4nccc(-c5cccnc5)n4)c3)cc(C(F)(F)F)c2)cn1
REMARK SMILES IDX 11 1 12 2 13 3 14 4 15 5 16 6 30 7 9 8 10 9 8 10 7 12 6 13
REMARK SMILES IDX 31 14 5 15 32 16 37 17 4 18 3 19 38 20 2 21 39 22 1 23 33 24
REMARK SMILES IDX 34 25 35 26 36 27 17 28 18 30 19 31 29 32 20 33 22 34 21 35
REMARK SMILES IDX 23 36 24 37 28 38 25 39 27 40 26 41
REMARK H PARENT 8 11 17 29
ROOT
ATOM      1  C   UNL     1      34.495  -0.938  50.827  1.00  0.00     0.042 A 
ATOM      2  C   UNL     1      34.605  -2.183  50.189  1.00  0.00     0.014 A 
ATOM      3  C   UNL     1      35.586  -2.421  49.225  1.00  0.00     0.006 A 
ATOM      4  C   UNL     1      36.436  -1.413  48.800  1.00  0.00    -0.027 A 
ATOM      5  C   UNL     1      37.496  -1.686  47.742  1.00  0.00     0.046 C 
ATOM      6  C   UNL     1      36.264  -0.146  49.355  1.00  0.00     0.045 A 
ATOM      7  C   UNL     1      35.291   0.066  50.339  1.00  0.00     0.040 A 
ENDROOT
BRANCH   1   8
ATOM      8  C   UNL     1      33.415  -0.560  51.759  1.00  0.00     0.255 C 
ATOM      9  O   UNL     1      33.687   0.320  52.539  1.00  0.00    -0.269 OA
ATOM     10  N   UNL     1      32.196  -1.045  51.479  1.00  0.00    -0.322 N 
ATOM     11  H   UNL     1      32.121  -1.691  50.681  1.00  0.00     0.170 HD
BRANCH  10  12
ATOM     12  C   UNL     1      31.025  -0.755  52.168  1.00  0.00     0.044 A 
ATOM     13  C   UNL     1      30.221   0.353  51.802  1.00  0.00     0.052 A 
ATOM     14  C   UNL     1      30.672  -1.485  53.324  1.00  0.00     0.039 A 
ATOM     15  C   UNL     1      29.036   0.647  52.482  1.00  0.00     0.049 A 
ATOM     16  C   UNL     1      29.453  -1.198  54.002  1.00  0.00     0.060 A 
ATOM     17  C   UNL     1      28.675  -0.114  53.589  1.00  0.00     0.039 A 
BRANCH  15  18
ATOM     18  N   UNL     1      28.212   1.717  52.101  1.00  0.00    -0.306 N 
ATOM     19  C   UNL     1      27.242   2.384  52.846  1.00  0.00     0.116 A 
ATOM     20  C   UNL     1      28.125   2.267  50.884  1.00  0.00     0.204 A 
ATOM     21  C   UNL     1      26.640   3.288  52.043  1.00  0.00     0.056 A 
ATOM     22  N   UNL     1      27.229   3.222  50.828  1.00  0.00    -0.242 NA
ATOM     23  C   UNL     1      25.542   4.261  52.398  1.00  0.00     0.068 C 
ENDBRANCH  15  18
BRANCH  16  24
ATOM     24  C   UNL     1      29.074  -2.026  55.187  1.00  0.00     0.416 C 
ATOM     25  F   UNL     1      28.338  -3.119  54.906  1.00  0.00    -0.166 F 
ATOM     26  F   UNL     1      30.148  -2.557  55.761  1.00  0.00    -0.166 F 
ATOM     27  F   UNL     1      28.305  -1.346  56.063  1.00  0.00    -0.166 F 
ENDBRANCH  16  24
ENDBRANCH  10  12
ENDBRANCH   1   8
BRANCH   6  28
ATOM     28  N   UNL     1      37.212   0.843  49.064  1.00  0.00    -0.324 N 
ATOM     29  H   UNL     1      36.909   1.771  48.735  1.00  0.00     0.170 HD
BRANCH  28  30
ATOM     30  C   UNL     1      38.570   0.562  49.223  1.00  0.00     0.227 A 
ATOM     31  N   UNL     1      39.189   0.006  50.257  1.00  0.00    -0.221 NA
ATOM     32  N   UNL     1      39.220   1.037  48.130  1.00  0.00    -0.213 NA
ATOM     33  C   UNL     1      40.528  -0.112  50.169  1.00  0.00     0.117 A 
ATOM     34  C   UNL     1      40.553   0.926  48.102  1.00  0.00     0.077 A 
ATOM     35  C   UNL     1      41.228   0.352  49.122  1.00  0.00     0.049 A 
BRANCH  34  36
ATOM     36  C   UNL     1      41.214   1.430  46.870  1.00  0.00     0.019 A 
ATOM     37  C   UNL     1      40.649   2.460  46.101  1.00  0.00     0.013 A 
ATOM     38  C   UNL     1      42.430   0.870  46.430  1.00  0.00     0.121 A 
ATOM     39  C   UNL     1      41.299   2.873  44.944  1.00  0.00     0.021 A 
ATOM     40  N   UNL     1      43.057   1.259  45.312  1.00  0.00    -0.264 NA
ATOM     41  C   UNL     1      42.507   2.263  44.610  1.00  0.00     0.111 A 
ENDBRANCH  34  36
ENDBRANCH  28  30
ENDBRANCH   6  28
TORSDOF 7
ENDMDL
MODEL 10
REMARK VINA RESULT:   -10.929      4.570      7.587
REMARK INTER + INTRA:         -13.827
REMARK INTER:                 -13.017
REMARK INTRA:                  -0.810
REMARK CONF_INDEPENDENT:        2.088
REMARK UNBOUND:                -0.810
REMARK SMILES Cc1cn(-c2cc(NC(=O)c3ccc(C)c(Nc4nccc(-c5cccnc5)n4)c3)cc(C(F)(F)F)c2)cn1
REMARK SMILES IDX 11 1 12 2 13 3 14 4 15 5 16 6 30 7 9 8 10 9 8 10 7 12 6 13
REMARK SMILES IDX 31 14 5 15 32 16 37 17 4 18 3 19 38 20 2 21 39 22 1 23 33 24
REMARK SMILES IDX 34 25 35 26 36 27 17 28 18 30 19 31 29 32 20 33 22 34 21 35
REMARK SMILES IDX 23 36 24 37 28 38 25 39 27 40 26 41
REMARK H PARENT 8 11 17 29
ROOT
ATOM      1  C   UNL     1      23.046   5.972  52.879  1.00  0.00     0.042 A 
ATOM      2  C   UNL     1      22.832   5.801  51.503  1.00  0.00     0.014 A 
ATOM      3  C   UNL     1      23.464   4.782  50.790  1.00  0.00     0.006 A 
ATOM      4  C   UNL     1      24.392   3.950  51.396  1.00  0.00    -0.027 A 
ATOM      5  C   UNL     1      25.079   2.847  50.604  1.00  0.00     0.046 C 
ATOM      6  C   UNL     1      24.687   4.181  52.739  1.00  0.00     0.045 A 
ATOM      7  C   UNL     1      24.023   5.193  53.443  1.00  0.00     0.040 A 
ENDROOT
BRANCH   1   8
ATOM      8  C   UNL     1      22.521   7.095  53.682  1.00  0.00     0.255 C 
ATOM      9  O   UNL     1      23.355   7.832  54.148  1.00  0.00    -0.269 OA
ATOM     10  N   UNL     1      21.201   7.317  53.596  1.00  0.00    -0.322 N 
ATOM     11  H   UNL     1      20.651   6.651  53.036  1.00  0.00     0.170 HD
BRANCH  10  12
ATOM     12  C   UNL     1      20.509   8.362  54.196  1.00  0.00     0.044 A 
ATOM     13  C   UNL     1      19.469   9.034  53.508  1.00  0.00     0.052 A 
ATOM     14  C   UNL     1      20.907   8.856  55.457  1.00  0.00     0.039 A 
ATOM     15  C   UNL     1      18.760  10.079  54.106  1.00  0.00     0.049 A 
ATOM     16  C   UNL     1      20.170   9.907  56.073  1.00  0.00     0.060 A 
ATOM     17  C   UNL     1      19.131  10.522  55.372  1.00  0.00     0.039 A 
BRANCH  15  18
ATOM     18  N   UNL     1      17.700  10.723  53.449  1.00  0.00    -0.306 N 
ATOM     19  C   UNL     1      16.529  11.253  53.988  1.00  0.00     0.116 A 
ATOM     20  C   UNL     1      17.555  10.882  52.129  1.00  0.00     0.204 A 
ATOM     21  C   UNL     1      15.760  11.698  52.970  1.00  0.00     0.056 A 
ATOM     22  N   UNL     1      16.434  11.487  51.818  1.00  0.00    -0.242 NA
ATOM     23  C   UNL     1      14.410  12.368  53.050  1.00  0.00     0.068 C 
ENDBRANCH  15  18
BRANCH  16  24
ATOM     24  C   UNL     1      20.576  10.371  57.435  1.00  0.00     0.416 C 
ATOM     25  F   UNL     1      20.556   9.420  58.390  1.00  0.00    -0.166 F 
ATOM     26  F   UNL     1      21.849  10.749  57.450  1.00  0.00    -0.166 F 
ATOM     27  F   UNL     1      19.750  11.321  57.921  1.00  0.00    -0.166 F 
ENDBRANCH  16  24
ENDBRANCH  10  12
ENDBRANCH   1   8
BRANCH   6  28
ATOM     28  N   UNL     1      25.495   3.256  53.412  1.00  0.00    -0.324 N 
ATOM     29  H   UNL     1      25.159   2.804  54.275  1.00  0.00     0.170 HD
BRANCH  28  30
ATOM     30  C   UNL     1      26.759   2.951  52.905  1.00  0.00     0.227 A 
ATOM     31  N   UNL     1      27.465   3.597  51.985  1.00  0.00    -0.221 NA
ATOM     32  N   UNL     1      27.158   1.782  53.468  1.00  0.00    -0.213 NA
ATOM     33  C   UNL     1      28.651   3.058  51.643  1.00  0.00     0.117 A 
ATOM     34  C   UNL     1      28.329   1.269  53.073  1.00  0.00     0.077 A 
ATOM     35  C   UNL     1      29.092   1.898  52.153  1.00  0.00     0.049 A 
BRANCH  34  36
ATOM     36  C   UNL     1      28.737   0.007  53.744  1.00  0.00     0.019 A 
ATOM     37  C   UNL     1      28.049  -0.486  54.864  1.00  0.00     0.013 A 
ATOM     38  C   UNL     1      29.846  -0.726  53.277  1.00  0.00     0.121 A 
ATOM     39  C   UNL     1      28.491  -1.657  55.466  1.00  0.00     0.021 A 
ATOM     40  N   UNL     1      30.281  -1.851  53.857  1.00  0.00    -0.264 NA
ATOM     41  C   UNL     1      29.589  -2.313  54.911  1.00  0.00     0.111 A 
ENDBRANCH  34  36
ENDBRANCH  28  30
ENDBRANCH   6  28
TORSDOF 7
ENDMDL
MODEL 11
REMARK VINA RESULT:   -10.887      8.325     15.209
REMARK INTER + INTRA:         -14.288
REMARK INTER:                 -12.975
REMARK INTRA:                  -1.313
REMARK CONF_INDEPENDENT:        2.088
REMARK UNBOUND:                -1.313
REMARK SMILES Cc1cn(-c2cc(NC(=O)c3ccc(C)c(Nc4nccc(-c5cccnc5)n4)c3)cc(C(F)(F)F)c2)cn1
REMARK SMILES IDX 11 1 12 2 13 3 14 4 15 5 16 6 30 7 9 8 10 9 8 10 7 12 6 13
REMARK SMILES IDX 31 14 5 15 32 16 37 17 4 18 3 19 38 20 2 21 39 22 1 23 33 24
REMARK SMILES IDX 34 25 35 26 36 27 17 28 18 30 19 31 29 32 20 33 22 34 21 35
REMARK SMILES IDX 23 36 24 37 28 38 25 39 27 40 26 41
REMARK H PARENT 8 11 17 29
ROOT
ATOM      1  C   UNL     1      35.979  -1.671  49.269  1.00  0.00     0.042 A 
ATOM      2  C   UNL     1      35.198  -2.830  49.149  1.00  0.00     0.014 A 
ATOM      3  C   UNL     1      33.823  -2.809  49.389  1.00  0.00     0.006 A 
ATOM      4  C   UNL     1      33.190  -1.660  49.836  1.00  0.00    -0.027 A 
ATOM      5  C   UNL     1      31.691  -1.653  50.102  1.00  0.00     0.046 C 
ATOM      6  C   UNL     1      33.979  -0.532  50.058  1.00  0.00     0.045 A 
ATOM      7  C   UNL     1      35.353  -0.568  49.787  1.00  0.00     0.040 A 
ENDROOT
BRANCH   1   8
ATOM      8  C   UNL     1      37.451  -1.631  49.158  1.00  0.00     0.255 C 
ATOM      9  O   UNL     1      38.032  -1.211  50.129  1.00  0.00    -0.269 OA
ATOM     10  N   UNL     1      37.984  -2.287  48.117  1.00  0.00    -0.322 N 
ATOM     11  H   UNL     1      37.328  -2.708  47.444  1.00  0.00     0.170 HD
BRANCH  10  12
ATOM     12  C   UNL     1      39.340  -2.450  47.863  1.00  0.00     0.044 A 
ATOM     13  C   UNL     1      39.906  -2.028  46.635  1.00  0.00     0.052 A 
ATOM     14  C   UNL     1      40.162  -3.150  48.774  1.00  0.00     0.039 A 
ATOM     15  C   UNL     1      41.271  -2.179  46.375  1.00  0.00     0.049 A 
ATOM     16  C   UNL     1      41.556  -3.283  48.517  1.00  0.00     0.060 A 
ATOM     17  C   UNL     1      42.079  -2.825  47.305  1.00  0.00     0.039 A 
BRANCH  15  18
ATOM     18  N   UNL     1      41.849  -1.726  45.179  1.00  0.00    -0.306 N 
ATOM     19  C   UNL     1      42.153  -0.422  44.792  1.00  0.00     0.116 A 
ATOM     20  C   UNL     1      42.148  -2.465  44.104  1.00  0.00     0.204 A 
ATOM     21  C   UNL     1      42.617  -0.455  43.524  1.00  0.00     0.056 A 
ATOM     22  N   UNL     1      42.637  -1.746  43.123  1.00  0.00    -0.242 NA
ATOM     23  C   UNL     1      43.093   0.701  42.678  1.00  0.00     0.068 C 
ENDBRANCH  15  18
BRANCH  16  24
ATOM     24  C   UNL     1      42.413  -3.975  49.526  1.00  0.00     0.416 C 
ATOM     25  F   UNL     1      43.725  -3.675  49.461  1.00  0.00    -0.166 F 
ATOM     26  F   UNL     1      42.104  -3.590  50.759  1.00  0.00    -0.166 F 
ATOM     27  F   UNL     1      42.391  -5.317  49.385  1.00  0.00    -0.166 F 
ENDBRANCH  16  24
ENDBRANCH  10  12
ENDBRANCH   1   8
BRANCH   6  28
ATOM     28  N   UNL     1      33.341   0.680  50.352  1.00  0.00    -0.324 N 
ATOM     29  H   UNL     1      33.001   1.285  49.592  1.00  0.00     0.170 HD
BRANCH  28  30
ATOM     30  C   UNL     1      33.171   1.060  51.685  1.00  0.00     0.227 A 
ATOM     31  N   UNL     1      33.879   1.925  52.400  1.00  0.00    -0.221 NA
ATOM     32  N   UNL     1      32.160   0.315  52.200  1.00  0.00    -0.213 NA
ATOM     33  C   UNL     1      33.525   2.075  53.691  1.00  0.00     0.117 A 
ATOM     34  C   UNL     1      31.866   0.476  53.495  1.00  0.00     0.077 A 
ATOM     35  C   UNL     1      32.545   1.357  54.261  1.00  0.00     0.049 A 
BRANCH  34  36
ATOM     36  C   UNL     1      30.729  -0.336  54.002  1.00  0.00     0.019 A 
ATOM     37  C   UNL     1      29.630   0.257  54.645  1.00  0.00     0.013 A 
ATOM     38  C   UNL     1      30.732  -1.737  53.861  1.00  0.00     0.121 A 
ATOM     39  C   UNL     1      28.608  -0.555  55.120  1.00  0.00     0.021 A 
ATOM     40  N   UNL     1      29.754  -2.526  54.325  1.00  0.00    -0.264 NA
ATOM     41  C   UNL     1      28.703  -1.930  54.913  1.00  0.00     0.111 A 
ENDBRANCH  34  36
ENDBRANCH  28  30
ENDBRANCH   6  28
TORSDOF 7
ENDMDL
MODEL 12
REMARK VINA RESULT:   -10.874      3.898     11.748
REMARK INTER + INTRA:         -14.071
REMARK INTER:                 -12.962
REMARK INTRA:                  -1.109
REMARK CONF_INDEPENDENT:        2.088
REMARK UNBOUND:                -1.109
REMARK SMILES Cc1cn(-c2cc(NC(=O)c3ccc(C)c(Nc4nccc(-c5cccnc5)n4)c3)cc(C(F)(F)F)c2)cn1
REMARK SMILES IDX 11 1 12 2 13 3 14 4 15 5 16 6 30 7 9 8 10 9 8 10 7 12 6 13
REMARK SMILES IDX 31 14 5 15 32 16 37 17 4 18 3 19 38 20 2 21 39 22 1 23 33 24
REMARK SMILES IDX 34 25 35 26 36 27 17 28 18 30 19 31 29 32 20 33 22 34 21 35
REMARK SMILES IDX 23 36 24 37 28 38 25 39 27 40 26 41
REMARK H PARENT 8 11 17 29
ROOT
ATOM      1  C   UNL     1      25.745   3.579  51.872  1.00  0.00     0.042 A 
ATOM      2  C   UNL     1      24.885   3.404  50.778  1.00  0.00     0.014 A 
ATOM      3  C   UNL     1      23.547   3.797  50.835  1.00  0.00     0.006 A 
ATOM      4  C   UNL     1      22.994   4.299  52.002  1.00  0.00    -0.027 A 
ATOM      5  C   UNL     1      21.532   4.716  52.052  1.00  0.00     0.046 C 
ATOM      6  C   UNL     1      23.818   4.379  53.124  1.00  0.00     0.045 A 
ATOM      7  C   UNL     1      25.164   4.003  53.040  1.00  0.00     0.040 A 
ENDROOT
BRANCH   1   8
ATOM      8  C   UNL     1      27.132   3.080  51.943  1.00  0.00     0.255 C 
ATOM      9  O   UNL     1      27.725   3.044  50.893  1.00  0.00    -0.269 OA
ATOM     10  N   UNL     1      27.657   2.963  53.172  1.00  0.00    -0.322 N 
ATOM     11  H   UNL     1      27.035   3.166  53.968  1.00  0.00     0.170 HD
BRANCH  10  12
ATOM     12  C   UNL     1      28.963   2.594  53.471  1.00  0.00     0.044 A 
ATOM     13  C   UNL     1      29.645   1.635  52.683  1.00  0.00     0.052 A 
ATOM     14  C   UNL     1      29.597   3.077  54.636  1.00  0.00     0.039 A 
ATOM     15  C   UNL     1      30.962   1.265  52.969  1.00  0.00     0.049 A 
ATOM     16  C   UNL     1      30.946   2.716  54.913  1.00  0.00     0.060 A 
ATOM     17  C   UNL     1      31.593   1.789  54.092  1.00  0.00     0.039 A 
BRANCH  15  18
ATOM     18  N   UNL     1      31.661   0.347  52.170  1.00  0.00    -0.306 N 
ATOM     19  C   UNL     1      31.249  -0.286  50.998  1.00  0.00     0.116 A 
ATOM     20  C   UNL     1      32.860  -0.189  52.427  1.00  0.00     0.204 A 
ATOM     21  C   UNL     1      32.217  -1.151  50.623  1.00  0.00     0.056 A 
ATOM     22  N   UNL     1      33.230  -1.052  51.512  1.00  0.00    -0.242 NA
ATOM     23  C   UNL     1      32.240  -2.050  49.411  1.00  0.00     0.068 C 
ENDBRANCH  15  18
BRANCH  16  24
ATOM     24  C   UNL     1      31.613   3.290  56.121  1.00  0.00     0.416 C 
ATOM     25  F   UNL     1      31.651   2.473  57.193  1.00  0.00    -0.166 F 
ATOM     26  F   UNL     1      32.903   3.507  55.896  1.00  0.00    -0.166 F 
ATOM     27  F   UNL     1      30.979   4.386  56.585  1.00  0.00    -0.166 F 
ENDBRANCH  16  24
ENDBRANCH  10  12
ENDBRANCH   1   8
BRANCH   6  28
ATOM     28  N   UNL     1      23.330   5.031  54.264  1.00  0.00    -0.324 N 
ATOM     29  H   UNL     1      22.353   4.897  54.561  1.00  0.00     0.170 HD
BRANCH  28  30
ATOM     30  C   UNL     1      24.179   5.864  54.995  1.00  0.00     0.227 A 
ATOM     31  N   UNL     1      25.448   6.173  54.758  1.00  0.00    -0.221 NA
ATOM     32  N   UNL     1      23.501   6.281  56.095  1.00  0.00    -0.213 NA
ATOM     33  C   UNL     1      26.054   6.974  55.656  1.00  0.00     0.117 A 
ATOM     34  C   UNL     1      24.155   7.049  56.974  1.00  0.00     0.077 A 
ATOM     35  C   UNL     1      25.441   7.405  56.770  1.00  0.00     0.049 A 
BRANCH  34  36
ATOM     36  C   UNL     1      23.359   7.507  58.143  1.00  0.00     0.019 A 
ATOM     37  C   UNL     1      22.103   8.114  57.985  1.00  0.00     0.013 A 
ATOM     38  C   UNL     1      23.857   7.355  59.452  1.00  0.00     0.121 A 
ATOM     39  C   UNL     1      21.415   8.545  59.112  1.00  0.00     0.021 A 
ATOM     40  N   UNL     1      23.202   7.776  60.541  1.00  0.00    -0.264 NA
ATOM     41  C   UNL     1      21.992   8.330  60.363  1.00  0.00     0.111 A 
ENDBRANCH  34  36
ENDBRANCH  28  30
ENDBRANCH   6  28
TORSDOF 7
ENDMDL
MODEL 13
REMARK VINA RESULT:   -10.803      4.697     13.531
REMARK INTER + INTRA:         -14.240
REMARK INTER:                 -12.891
REMARK INTRA:                  -1.349
REMARK CONF_INDEPENDENT:        2.088
REMARK UNBOUND:                -1.349
REMARK SMILES Cc1cn(-c2cc(NC(=O)c3ccc(C)c(Nc4nccc(-c5cccnc5)n4)c3)cc(C(F)(F)F)c2)cn1
REMARK SMILES IDX 11 1 12 2 13 3 14 4 15 5 16 6 30 7 9 8 10 9 8 10 7 12 6 13
REMARK SMILES IDX 31 14 5 15 32 16 37 17 4 18 3 19 38 20 2 21 39 22 1 23 33 24
REMARK SMILES IDX 34 25 35 26 36 27 17 28 18 30 19 31 29 32 20 33 22 34 21 35
REMARK SMILES IDX 23 36 24 37 28 38 25 39 27 40 26 41
REMARK H PARENT 8 11 17 29
ROOT
ATOM      1  C   UNL     1      21.066   7.261  54.280  1.00  0.00     0.042 A 
ATOM      2  C   UNL     1      20.927   7.409  55.668  1.00  0.00     0.014 A 
ATOM      3  C   UNL     1      20.203   8.468  56.217  1.00  0.00     0.006 A 
ATOM      4  C   UNL     1      19.663   9.461  55.416  1.00  0.00    -0.027 A 
ATOM      5  C   UNL     1      18.882  10.615  56.029  1.00  0.00     0.046 C 
ATOM      6  C   UNL     1      19.886   9.375  54.042  1.00  0.00     0.045 A 
ATOM      7  C   UNL     1      20.594   8.291  53.509  1.00  0.00     0.040 A 
ENDROOT
BRANCH   1   8
ATOM      8  C   UNL     1      21.916   6.250  53.621  1.00  0.00     0.255 C 
ATOM      9  O   UNL     1      21.845   5.135  54.079  1.00  0.00    -0.269 OA
ATOM     10  N   UNL     1      22.467   6.611  52.452  1.00  0.00    -0.322 N 
ATOM     11  H   UNL     1      22.311   7.580  52.141  1.00  0.00     0.170 HD
BRANCH  10  12
ATOM     12  C   UNL     1      23.229   5.797  51.624  1.00  0.00     0.044 A 
ATOM     13  C   UNL     1      24.322   5.055  52.138  1.00  0.00     0.052 A 
ATOM     14  C   UNL     1      23.008   5.784  50.229  1.00  0.00     0.039 A 
ATOM     15  C   UNL     1      25.088   4.227  51.314  1.00  0.00     0.049 A 
ATOM     16  C   UNL     1      23.775   4.922  49.395  1.00  0.00     0.060 A 
ATOM     17  C   UNL     1      24.824   4.185  49.948  1.00  0.00     0.039 A 
BRANCH  15  18
ATOM     18  N   UNL     1      26.145   3.456  51.821  1.00  0.00    -0.306 N 
ATOM     19  C   UNL     1      26.502   3.224  53.148  1.00  0.00     0.116 A 
ATOM     20  C   UNL     1      27.104   2.847  51.113  1.00  0.00     0.204 A 
ATOM     21  C   UNL     1      27.638   2.493  53.158  1.00  0.00     0.056 A 
ATOM     22  N   UNL     1      27.981   2.240  51.875  1.00  0.00    -0.242 NA
ATOM     23  C   UNL     1      28.400   1.977  54.355  1.00  0.00     0.068 C 
ENDBRANCH  15  18
BRANCH  16  24
ATOM     24  C   UNL     1      23.479   4.883  47.931  1.00  0.00     0.416 C 
ATOM     25  F   UNL     1      24.479   5.315  47.136  1.00  0.00    -0.166 F 
ATOM     26  F   UNL     1      23.314   3.635  47.510  1.00  0.00    -0.166 F 
ATOM     27  F   UNL     1      22.445   5.682  47.595  1.00  0.00    -0.166 F 
ENDBRANCH  16  24
ENDBRANCH  10  12
ENDBRANCH   1   8
BRANCH   6  28
ATOM     28  N   UNL     1      19.216  10.273  53.201  1.00  0.00    -0.324 N 
ATOM     29  H   UNL     1      19.746  10.863  52.544  1.00  0.00     0.170 HD
BRANCH  28  30
ATOM     30  C   UNL     1      17.824  10.361  53.260  1.00  0.00     0.227 A 
ATOM     31  N   UNL     1      17.057  11.444  53.245  1.00  0.00    -0.221 NA
ATOM     32  N   UNL     1      17.338   9.103  53.421  1.00  0.00    -0.213 NA
ATOM     33  C   UNL     1      15.730  11.247  53.360  1.00  0.00     0.117 A 
ATOM     34  C   UNL     1      16.015   8.961  53.564  1.00  0.00     0.077 A 
ATOM     35  C   UNL     1      15.191  10.031  53.538  1.00  0.00     0.049 A 
BRANCH  34  36
ATOM     36  C   UNL     1      15.531   7.563  53.702  1.00  0.00     0.019 A 
ATOM     37  C   UNL     1      14.710   7.172  54.772  1.00  0.00     0.013 A 
ATOM     38  C   UNL     1      15.899   6.582  52.761  1.00  0.00     0.121 A 
ATOM     39  C   UNL     1      14.308   5.845  54.864  1.00  0.00     0.021 A 
ATOM     40  N   UNL     1      15.522   5.300  52.849  1.00  0.00    -0.264 NA
ATOM     41  C   UNL     1      14.716   4.959  53.868  1.00  0.00     0.111 A 
ENDBRANCH  34  36
ENDBRANCH  28  30
ENDBRANCH   6  28
TORSDOF 7
ENDMDL
MODEL 14
REMARK VINA RESULT:   -10.739      3.609     12.206
REMARK INTER + INTRA:         -14.028
REMARK INTER:                 -12.827
REMARK INTRA:                  -1.201
REMARK CONF_INDEPENDENT:        2.088
REMARK UNBOUND:                -1.201
REMARK SMILES Cc1cn(-c2cc(NC(=O)c3ccc(C)c(Nc4nccc(-c5cccnc5)n4)c3)cc(C(F)(F)F)c2)cn1
REMARK SMILES IDX 11 1 12 2 13 3 14 4 15 5 16 6 30 7 9 8 10 9 8 10 7 12 6 13
REMARK SMILES IDX 31 14 5 15 32 16 37 17 4 18 3 19 38 20 2 21 39 22 1 23 33 24
REMARK SMILES IDX 34 25 35 26 36 27 17 28 18 30 19 31 29 32 20 33 22 34 21 35
REMARK SMILES IDX 23 36 24 37 28 38 25 39 27 40 26 41
REMARK H PARENT 8 11 17 29
ROOT
ATOM      1  C   UNL     1      26.153   3.538  51.672  1.00  0.00     0.042 A 
ATOM      2  C   UNL     1      25.582   3.966  50.465  1.00  0.00     0.014 A 
ATOM      3  C   UNL     1      24.331   4.584  50.431  1.00  0.00     0.006 A 
ATOM      4  C   UNL     1      23.567   4.723  51.579  1.00  0.00    -0.027 A 
ATOM      5  C   UNL     1      22.201   5.392  51.526  1.00  0.00     0.046 C 
ATOM      6  C   UNL     1      24.084   4.206  52.765  1.00  0.00     0.045 A 
ATOM      7  C   UNL     1      25.352   3.612  52.783  1.00  0.00     0.040 A 
ENDROOT
BRANCH   1   8
ATOM      8  C   UNL     1      27.406   2.766  51.786  1.00  0.00     0.255 C 
ATOM      9  O   UNL     1      28.349   3.218  51.185  1.00  0.00    -0.269 OA
ATOM     10  N   UNL     1      27.428   1.810  52.727  1.00  0.00    -0.322 N 
ATOM     11  H   UNL     1      26.555   1.645  53.247  1.00  0.00     0.170 HD
BRANCH  10  12
ATOM     12  C   UNL     1      28.522   1.022  53.063  1.00  0.00     0.044 A 
ATOM     13  C   UNL     1      29.808   1.301  52.538  1.00  0.00     0.052 A 
ATOM     14  C   UNL     1      28.354  -0.146  53.839  1.00  0.00     0.039 A 
ATOM     15  C   UNL     1      30.916   0.520  52.878  1.00  0.00     0.049 A 
ATOM     16  C   UNL     1      29.488  -0.928  54.202  1.00  0.00     0.060 A 
ATOM     17  C   UNL     1      30.744  -0.599  53.687  1.00  0.00     0.039 A 
BRANCH  15  18
ATOM     18  N   UNL     1      32.201   0.813  52.397  1.00  0.00    -0.306 N 
ATOM     19  C   UNL     1      32.861   0.289  51.287  1.00  0.00     0.116 A 
ATOM     20  C   UNL     1      33.111   1.607  52.974  1.00  0.00     0.204 A 
ATOM     21  C   UNL     1      34.112   0.798  51.261  1.00  0.00     0.056 A 
ATOM     22  N   UNL     1      34.238   1.646  52.306  1.00  0.00    -0.242 NA
ATOM     23  C   UNL     1      35.197   0.545  50.242  1.00  0.00     0.068 C 
ENDBRANCH  15  18
BRANCH  16  24
ATOM     24  C   UNL     1      29.289  -2.125  55.074  1.00  0.00     0.416 C 
ATOM     25  F   UNL     1      28.643  -3.154  54.491  1.00  0.00    -0.166 F 
ATOM     26  F   UNL     1      30.452  -2.678  55.398  1.00  0.00    -0.166 F 
ATOM     27  F   UNL     1      28.530  -1.851  56.156  1.00  0.00    -0.166 F 
ENDBRANCH  16  24
ENDBRANCH  10  12
ENDBRANCH   1   8
BRANCH   6  28
ATOM     28  N   UNL     1      23.408   4.478  53.962  1.00  0.00    -0.324 N 
ATOM     29  H   UNL     1      22.833   3.750  54.410  1.00  0.00     0.170 HD
BRANCH  28  30
ATOM     30  C   UNL     1      23.519   5.743  54.542  1.00  0.00     0.227 A 
ATOM     31  N   UNL     1      24.544   6.269  55.200  1.00  0.00    -0.221 NA
ATOM     32  N   UNL     1      22.325   6.371  54.392  1.00  0.00    -0.213 NA
ATOM     33  C   UNL     1      24.371   7.507  55.701  1.00  0.00     0.117 A 
ATOM     34  C   UNL     1      22.190   7.587  54.934  1.00  0.00     0.077 A 
ATOM     35  C   UNL     1      23.210   8.173  55.599  1.00  0.00     0.049 A 
BRANCH  34  36
ATOM     36  C   UNL     1      20.877   8.247  54.713  1.00  0.00     0.019 A 
ATOM     37  C   UNL     1      19.873   8.236  55.695  1.00  0.00     0.013 A 
ATOM     38  C   UNL     1      20.598   8.894  53.493  1.00  0.00     0.121 A 
ATOM     39  C   UNL     1      18.656   8.847  55.423  1.00  0.00     0.021 A 
ATOM     40  N   UNL     1      19.424   9.478  53.222  1.00  0.00    -0.264 NA
ATOM     41  C   UNL     1      18.491   9.475  54.189  1.00  0.00     0.111 A 
ENDBRANCH  34  36
ENDBRANCH  28  30
ENDBRANCH   6  28
TORSDOF 7
ENDMDL
MODEL 15
REMARK VINA RESULT:   -10.656      3.937     11.693
REMARK INTER + INTRA:         -14.037
REMARK INTER:                 -12.744
REMARK INTRA:                  -1.293
REMARK CONF_INDEPENDENT:        2.088
REMARK UNBOUND:                -1.293
REMARK SMILES Cc1cn(-c2cc(NC(=O)c3ccc(C)c(Nc4nccc(-c5cccnc5)n4)c3)cc(C(F)(F)F)c2)cn1
REMARK SMILES IDX 11 1 12 2 13 3 14 4 15 5 16 6 30 7 9 8 10 9 8 10 7 12 6 13
REMARK SMILES IDX 31 14 5 15 32 16 37 17 4 18 3 19 38 20 2 21 39 22 1 23 33 24
REMARK SMILES IDX 34 25 35 26 36 27 17 28 18 30 19 31 29 32 20 33 22 34 21 35
REMARK SMILES IDX 23 36 24 37 28 38 25 39 27 40 26 41
REMARK H PARENT 8 11 17 29
ROOT
ATOM      1  C   UNL     1      25.948   3.815  51.903  1.00  0.00     0.042 A 
ATOM      2  C   UNL     1      25.232   4.152  50.744  1.00  0.00     0.014 A 
ATOM      3  C   UNL     1      24.110   4.980  50.798  1.00  0.00     0.006 A 
ATOM      4  C   UNL     1      23.609   5.434  52.008  1.00  0.00    -0.027 A 
ATOM      5  C   UNL     1      22.380   6.330  52.052  1.00  0.00     0.046 C 
ATOM      6  C   UNL     1      24.255   5.017  53.171  1.00  0.00     0.045 A 
ATOM      7  C   UNL     1      25.394   4.207  53.094  1.00  0.00     0.040 A 
ENDROOT
BRANCH   1   8
ATOM      8  C   UNL     1      27.063   2.849  51.954  1.00  0.00     0.255 C 
ATOM      9  O   UNL     1      27.792   2.848  50.992  1.00  0.00    -0.269 OA
ATOM     10  N   UNL     1      27.292   2.272  53.144  1.00  0.00    -0.322 N 
ATOM     11  H   UNL     1      26.635   2.495  53.905  1.00  0.00     0.170 HD
BRANCH  10  12
ATOM     12  C   UNL     1      28.333   1.401  53.441  1.00  0.00     0.044 A 
ATOM     13  C   UNL     1      29.643   1.642  52.958  1.00  0.00     0.052 A 
ATOM     14  C   UNL     1      28.084   0.194  54.130  1.00  0.00     0.039 A 
ATOM     15  C   UNL     1      30.698   0.777  53.261  1.00  0.00     0.049 A 
ATOM     16  C   UNL     1      29.164  -0.674  54.456  1.00  0.00     0.060 A 
ATOM     17  C   UNL     1      30.447  -0.383  53.986  1.00  0.00     0.039 A 
BRANCH  15  18
ATOM     18  N   UNL     1      32.007   1.029  52.823  1.00  0.00    -0.306 N 
ATOM     19  C   UNL     1      32.656   0.555  51.684  1.00  0.00     0.116 A 
ATOM     20  C   UNL     1      32.951   1.720  53.474  1.00  0.00     0.204 A 
ATOM     21  C   UNL     1      33.935   0.989  51.716  1.00  0.00     0.056 A 
ATOM     22  N   UNL     1      34.091   1.742  52.827  1.00  0.00    -0.242 NA
ATOM     23  C   UNL     1      35.022   0.751  50.695  1.00  0.00     0.068 C 
ENDBRANCH  15  18
BRANCH  16  24
ATOM     24  C   UNL     1      28.881  -1.915  55.239  1.00  0.00     0.416 C 
ATOM     25  F   UNL     1      28.044  -2.787  54.642  1.00  0.00    -0.166 F 
ATOM     26  F   UNL     1      29.980  -2.647  55.386  1.00  0.00    -0.166 F 
ATOM     27  F   UNL     1      28.275  -1.653  56.415  1.00  0.00    -0.166 F 
ENDBRANCH  16  24
ENDBRANCH  10  12
ENDBRANCH   1   8
BRANCH   6  28
ATOM     28  N   UNL     1      23.868   5.590  54.390  1.00  0.00    -0.324 N 
ATOM     29  H   UNL     1      22.967   5.339  54.819  1.00  0.00     0.170 HD
BRANCH  28  30
ATOM     30  C   UNL     1      24.716   6.505  55.018  1.00  0.00     0.227 A 
ATOM     31  N   UNL     1      25.831   6.275  55.699  1.00  0.00    -0.221 NA
ATOM     32  N   UNL     1      24.160   7.737  54.888  1.00  0.00    -0.213 NA
ATOM     33  C   UNL     1      26.439   7.345  56.245  1.00  0.00     0.117 A 
ATOM     34  C   UNL     1      24.784   8.765  55.476  1.00  0.00     0.077 A 
ATOM     35  C   UNL     1      25.931   8.585  56.165  1.00  0.00     0.049 A 
BRANCH  34  36
ATOM     36  C   UNL     1      24.155  10.097  55.275  1.00  0.00     0.019 A 
ATOM     37  C   UNL     1      22.923  10.237  54.616  1.00  0.00     0.013 A 
ATOM     38  C   UNL     1      24.793  11.266  55.734  1.00  0.00     0.121 A 
ATOM     39  C   UNL     1      22.395  11.509  54.435  1.00  0.00     0.021 A 
ATOM     40  N   UNL     1      24.293  12.495  55.555  1.00  0.00    -0.264 NA
ATOM     41  C   UNL     1      23.102  12.598  54.944  1.00  0.00     0.111 A 
ENDBRANCH  34  36
ENDBRANCH  28  30
ENDBRANCH   6  28
TORSDOF 7
ENDMDL
MODEL 16
REMARK VINA RESULT:   -10.598      8.263     14.930
REMARK INTER + INTRA:         -14.036
REMARK INTER:                 -12.686
REMARK INTRA:                  -1.350
REMARK CONF_INDEPENDENT:        2.088
REMARK UNBOUND:                -1.350
REMARK SMILES Cc1cn(-c2cc(NC(=O)c3ccc(C)c(Nc4nccc(-c5cccnc5)n4)c3)cc(C(F)(F)F)c2)cn1
REMARK SMILES IDX 11 1 12 2 13 3 14 4 15 5 16 6 30 7 9 8 10 9 8 10 7 12 6 13
REMARK SMILES IDX 31 14 5 15 32 16 37 17 4 18 3 19 38 20 2 21 39 22 1 23 33 24
REMARK SMILES IDX 34 25 35 26 36 27 17 28 18 30 19 31 29 32 20 33 22 34 21 35
REMARK SMILES IDX 23 36 24 37 28 38 25 39 27 40 26 41
REMARK H PARENT 8 11 17 29
ROOT
ATOM      1  C   UNL     1      36.145  -1.610  49.501  1.00  0.00     0.042 A 
ATOM      2  C   UNL     1      35.400  -2.778  49.278  1.00  0.00     0.014 A 
ATOM      3  C   UNL     1      34.009  -2.784  49.386  1.00  0.00     0.006 A 
ATOM      4  C   UNL     1      33.315  -1.657  49.798  1.00  0.00    -0.027 A 
ATOM      5  C   UNL     1      31.798  -1.680  49.919  1.00  0.00     0.046 C 
ATOM      6  C   UNL     1      34.059  -0.523  50.121  1.00  0.00     0.045 A 
ATOM      7  C   UNL     1      35.452  -0.530  49.982  1.00  0.00     0.040 A 
ENDROOT
BRANCH   1   8
ATOM      8  C   UNL     1      37.620  -1.544  49.533  1.00  0.00     0.255 C 
ATOM      9  O   UNL     1      38.085  -0.696  50.255  1.00  0.00    -0.269 OA
ATOM     10  N   UNL     1      38.271  -2.572  48.969  1.00  0.00    -0.322 N 
ATOM     11  H   UNL     1      37.697  -3.289  48.502  1.00  0.00     0.170 HD
BRANCH  10  12
ATOM     12  C   UNL     1      39.647  -2.759  48.957  1.00  0.00     0.044 A 
ATOM     13  C   UNL     1      40.404  -2.666  50.151  1.00  0.00     0.052 A 
ATOM     14  C   UNL     1      40.338  -2.925  47.737  1.00  0.00     0.039 A 
ATOM     15  C   UNL     1      41.788  -2.862  50.150  1.00  0.00     0.049 A 
ATOM     16  C   UNL     1      41.745  -3.146  47.741  1.00  0.00     0.060 A 
ATOM     17  C   UNL     1      42.449  -3.076  48.945  1.00  0.00     0.039 A 
BRANCH  15  18
ATOM     18  N   UNL     1      42.540  -2.814  51.334  1.00  0.00    -0.306 N 
ATOM     19  C   UNL     1      42.627  -3.759  52.355  1.00  0.00     0.116 A 
ATOM     20  C   UNL     1      43.275  -1.786  51.775  1.00  0.00     0.204 A 
ATOM     21  C   UNL     1      43.404  -3.249  53.336  1.00  0.00     0.056 A 
ATOM     22  N   UNL     1      43.826  -2.028  52.939  1.00  0.00    -0.242 NA
ATOM     23  C   UNL     1      43.807  -3.903  54.635  1.00  0.00     0.068 C 
ENDBRANCH  15  18
BRANCH  16  24
ATOM     24  C   UNL     1      42.442  -3.379  46.440  1.00  0.00     0.416 C 
ATOM     25  F   UNL     1      43.777  -3.192  46.467  1.00  0.00    -0.166 F 
ATOM     26  F   UNL     1      42.351  -4.651  46.070  1.00  0.00    -0.166 F 
ATOM     27  F   UNL     1      42.027  -2.530  45.476  1.00  0.00    -0.166 F 
ENDBRANCH  16  24
ENDBRANCH  10  12
ENDBRANCH   1   8
BRANCH   6  28
ATOM     28  N   UNL     1      33.374   0.671  50.382  1.00  0.00    -0.324 N 
ATOM     29  H   UNL     1      33.028   1.251  49.605  1.00  0.00     0.170 HD
BRANCH  28  30
ATOM     30  C   UNL     1      33.165   1.068  51.704  1.00  0.00     0.227 A 
ATOM     31  N   UNL     1      33.833   1.963  52.420  1.00  0.00    -0.221 NA
ATOM     32  N   UNL     1      32.163   0.304  52.210  1.00  0.00    -0.213 NA
ATOM     33  C   UNL     1      33.448   2.124  53.700  1.00  0.00     0.117 A 
ATOM     34  C   UNL     1      31.836   0.478  53.496  1.00  0.00     0.077 A 
ATOM     35  C   UNL     1      32.475   1.388  54.261  1.00  0.00     0.049 A 
BRANCH  34  36
ATOM     36  C   UNL     1      30.711  -0.357  53.991  1.00  0.00     0.019 A 
ATOM     37  C   UNL     1      29.596   0.213  54.627  1.00  0.00     0.013 A 
ATOM     38  C   UNL     1      30.742  -1.758  53.848  1.00  0.00     0.121 A 
ATOM     39  C   UNL     1      28.586  -0.619  55.092  1.00  0.00     0.021 A 
ATOM     40  N   UNL     1      29.775  -2.566  54.301  1.00  0.00    -0.264 NA
ATOM     41  C   UNL     1      28.709  -1.992  54.882  1.00  0.00     0.111 A 
ENDBRANCH  34  36
ENDBRANCH  28  30
ENDBRANCH   6  28
TORSDOF 7
ENDMDL
MODEL 17
REMARK VINA RESULT:   -10.552      6.884     14.794
REMARK INTER + INTRA:         -13.639
REMARK INTER:                 -12.640
REMARK INTRA:                  -0.999
REMARK CONF_INDEPENDENT:        2.088
REMARK UNBOUND:                -0.999
REMARK SMILES Cc1cn(-c2cc(NC(=O)c3ccc(C)c(Nc4nccc(-c5cccnc5)n4)c3)cc(C(F)(F)F)c2)cn1
REMARK SMILES IDX 11 1 12 2 13 3 14 4 15 5 16 6 30 7 9 8 10 9 8 10 7 12 6 13
REMARK SMILES IDX 31 14 5 15 32 16 37 17 4 18 3 19 38 20 2 21 39 22 1 23 33 24
REMARK SMILES IDX 34 25 35 26 36 27 17 28 18 30 19 31 29 32 20 33 22 34 21 35
REMARK SMILES IDX 23 36 24 37 28 38 25 39 27 40 26 41
REMARK H PARENT 8 11 17 29
ROOT
ATOM      1  C   UNL     1      35.824  -1.360  49.677  1.00  0.00     0.042 A 
ATOM      2  C   UNL     1      35.092  -2.355  49.012  1.00  0.00     0.014 A 
ATOM      3  C   UNL     1      33.699  -2.402  49.082  1.00  0.00     0.006 A 
ATOM      4  C   UNL     1      32.989  -1.519  49.880  1.00  0.00    -0.027 A 
ATOM      5  C   UNL     1      31.470  -1.587  49.953  1.00  0.00     0.046 C 
ATOM      6  C   UNL     1      33.718  -0.593  50.625  1.00  0.00     0.045 A 
ATOM      7  C   UNL     1      35.114  -0.546  50.521  1.00  0.00     0.040 A 
ENDROOT
BRANCH   1   8
ATOM      8  C   UNL     1      37.297  -1.310  49.761  1.00  0.00     0.255 C 
ATOM      9  O   UNL     1      37.742  -0.687  50.694  1.00  0.00    -0.269 OA
ATOM     10  N   UNL     1      37.964  -2.153  48.959  1.00  0.00    -0.322 N 
ATOM     11  H   UNL     1      37.404  -2.717  48.304  1.00  0.00     0.170 HD
BRANCH  10  12
ATOM     12  C   UNL     1      39.341  -2.334  48.930  1.00  0.00     0.044 A 
ATOM     13  C   UNL     1      40.085  -2.443  50.130  1.00  0.00     0.052 A 
ATOM     14  C   UNL     1      40.045  -2.292  47.706  1.00  0.00     0.039 A 
ATOM     15  C   UNL     1      41.470  -2.635  50.111  1.00  0.00     0.049 A 
ATOM     16  C   UNL     1      41.452  -2.511  47.688  1.00  0.00     0.060 A 
ATOM     17  C   UNL     1      42.143  -2.644  48.894  1.00  0.00     0.039 A 
BRANCH  15  18
ATOM     18  N   UNL     1      42.210  -2.786  51.293  1.00  0.00    -0.306 N 
ATOM     19  C   UNL     1      42.135  -3.796  52.250  1.00  0.00     0.116 A 
ATOM     20  C   UNL     1      43.096  -1.921  51.800  1.00  0.00     0.204 A 
ATOM     21  C   UNL     1      42.975  -3.484  53.261  1.00  0.00     0.056 A 
ATOM     22  N   UNL     1      43.591  -2.323  52.945  1.00  0.00    -0.242 NA
ATOM     23  C   UNL     1      43.257  -4.277  54.514  1.00  0.00     0.068 C 
ENDBRANCH  15  18
BRANCH  16  24
ATOM     24  C   UNL     1      42.163  -2.522  46.374  1.00  0.00     0.416 C 
ATOM     25  F   UNL     1      43.277  -1.764  46.322  1.00  0.00    -0.166 F 
ATOM     26  F   UNL     1      42.639  -3.730  46.099  1.00  0.00    -0.166 F 
ATOM     27  F   UNL     1      41.402  -2.028  45.375  1.00  0.00    -0.166 F 
ENDBRANCH  16  24
ENDBRANCH  10  12
ENDBRANCH   1   8
BRANCH   6  28
ATOM     28  N   UNL     1      33.019   0.410  51.308  1.00  0.00    -0.324 N 
ATOM     29  H   UNL     1      33.219   1.403  51.119  1.00  0.00     0.170 HD
BRANCH  28  30
ATOM     30  C   UNL     1      32.049   0.054  52.248  1.00  0.00     0.227 A 
ATOM     31  N   UNL     1      32.093  -0.900  53.168  1.00  0.00    -0.221 NA
ATOM     32  N   UNL     1      30.954   0.824  52.021  1.00  0.00    -0.213 NA
ATOM     33  C   UNL     1      30.991  -1.063  53.925  1.00  0.00     0.117 A 
ATOM     34  C   UNL     1      29.872   0.604  52.777  1.00  0.00     0.077 A 
ATOM     35  C   UNL     1      29.873  -0.343  53.739  1.00  0.00     0.049 A 
BRANCH  34  36
ATOM     36  C   UNL     1      28.712   1.496  52.513  1.00  0.00     0.019 A 
ATOM     37  C   UNL     1      27.731   1.733  53.489  1.00  0.00     0.013 A 
ATOM     38  C   UNL     1      28.560   2.119  51.259  1.00  0.00     0.121 A 
ATOM     39  C   UNL     1      26.655   2.556  53.178  1.00  0.00     0.021 A 
ATOM     40  N   UNL     1      27.521   2.906  50.951  1.00  0.00    -0.264 NA
ATOM     41  C   UNL     1      26.611   3.137  51.911  1.00  0.00     0.111 A 
ENDBRANCH  34  36
ENDBRANCH  28  30
ENDBRANCH   6  28
TORSDOF 7
ENDMDL
MODEL 18
REMARK VINA RESULT:   -10.539      5.755     10.893
REMARK INTER + INTRA:         -13.793
REMARK INTER:                 -12.627
REMARK INTRA:                  -1.165
REMARK CONF_INDEPENDENT:        2.088
REMARK UNBOUND:                -1.165
REMARK SMILES Cc1cn(-c2cc(NC(=O)c3ccc(C)c(Nc4nccc(-c5cccnc5)n4)c3)cc(C(F)(F)F)c2)cn1
REMARK SMILES IDX 11 1 12 2 13 3 14 4 15 5 16 6 30 7 9 8 10 9 8 10 7 12 6 13
REMARK SMILES IDX 31 14 5 15 32 16 37 17 4 18 3 19 38 20 2 21 39 22 1 23 33 24
REMARK SMILES IDX 34 25 35 26 36 27 17 28 18 30 19 31 29 32 20 33 22 34 21 35
REMARK SMILES IDX 23 36 24 37 28 38 25 39 27 40 26 41
REMARK H PARENT 8 11 17 29
ROOT
ATOM      1  C   UNL     1      22.327   6.452  55.190  1.00  0.00     0.042 A 
ATOM      2  C   UNL     1      21.582   7.578  54.807  1.00  0.00     0.014 A 
ATOM      3  C   UNL     1      21.115   8.496  55.749  1.00  0.00     0.006 A 
ATOM      4  C   UNL     1      21.297   8.288  57.107  1.00  0.00    -0.027 A 
ATOM      5  C   UNL     1      20.776   9.293  58.123  1.00  0.00     0.046 C 
ATOM      6  C   UNL     1      21.946   7.118  57.500  1.00  0.00     0.045 A 
ATOM      7  C   UNL     1      22.429   6.222  56.538  1.00  0.00     0.040 A 
ENDROOT
BRANCH   1   8
ATOM      8  C   UNL     1      22.749   5.370  54.280  1.00  0.00     0.255 C 
ATOM      9  O   UNL     1      21.870   4.627  53.916  1.00  0.00    -0.269 OA
ATOM     10  N   UNL     1      23.982   5.477  53.764  1.00  0.00    -0.322 N 
ATOM     11  H   UNL     1      24.559   6.264  54.093  1.00  0.00     0.170 HD
BRANCH  10  12
ATOM     12  C   UNL     1      24.553   4.624  52.828  1.00  0.00     0.044 A 
ATOM     13  C   UNL     1      23.808   4.167  51.712  1.00  0.00     0.052 A 
ATOM     14  C   UNL     1      25.847   4.098  53.031  1.00  0.00     0.039 A 
ATOM     15  C   UNL     1      24.377   3.317  50.760  1.00  0.00     0.049 A 
ATOM     16  C   UNL     1      26.432   3.249  52.048  1.00  0.00     0.060 A 
ATOM     17  C   UNL     1      25.673   2.847  50.947  1.00  0.00     0.039 A 
BRANCH  15  18
ATOM     18  N   UNL     1      23.662   2.892  49.630  1.00  0.00    -0.306 N 
ATOM     19  C   UNL     1      22.853   1.768  49.477  1.00  0.00     0.116 A 
ATOM     20  C   UNL     1      23.686   3.446  48.412  1.00  0.00     0.204 A 
ATOM     21  C   UNL     1      22.440   1.717  48.191  1.00  0.00     0.056 A 
ATOM     22  N   UNL     1      22.945   2.793  47.550  1.00  0.00    -0.242 NA
ATOM     23  C   UNL     1      21.533   0.696  47.547  1.00  0.00     0.068 C 
ENDBRANCH  15  18
BRANCH  16  24
ATOM     24  C   UNL     1      27.826   2.755  52.259  1.00  0.00     0.416 C 
ATOM     25  F   UNL     1      27.979   1.420  52.158  1.00  0.00    -0.166 F 
ATOM     26  F   UNL     1      28.639   3.198  51.307  1.00  0.00    -0.166 F 
ATOM     27  F   UNL     1      28.285   3.029  53.498  1.00  0.00    -0.166 F 
ENDBRANCH  16  24
ENDBRANCH  10  12
ENDBRANCH   1   8
BRANCH   6  28
ATOM     28  N   UNL     1      22.285   6.965  58.850  1.00  0.00    -0.324 N 
ATOM     29  H   UNL     1      21.748   6.323  59.451  1.00  0.00     0.170 HD
BRANCH  28  30
ATOM     30  C   UNL     1      23.356   7.690  59.376  1.00  0.00     0.227 A 
ATOM     31  N   UNL     1      23.638   8.979  59.236  1.00  0.00    -0.221 NA
ATOM     32  N   UNL     1      24.163   6.816  60.031  1.00  0.00    -0.213 NA
ATOM     33  C   UNL     1      24.769   9.419  59.818  1.00  0.00     0.117 A 
ATOM     34  C   UNL     1      25.292   7.294  60.566  1.00  0.00     0.077 A 
ATOM     35  C   UNL     1      25.614   8.601  60.466  1.00  0.00     0.049 A 
BRANCH  34  36
ATOM     36  C   UNL     1      26.123   6.305  61.302  1.00  0.00     0.019 A 
ATOM     37  C   UNL     1      26.399   6.450  62.671  1.00  0.00     0.013 A 
ATOM     38  C   UNL     1      26.671   5.192  60.634  1.00  0.00     0.121 A 
ATOM     39  C   UNL     1      27.202   5.508  63.301  1.00  0.00     0.021 A 
ATOM     40  N   UNL     1      27.452   4.285  61.234  1.00  0.00    -0.264 NA
ATOM     41  C   UNL     1      27.679   4.435  62.550  1.00  0.00     0.111 A 
ENDBRANCH  34  36
ENDBRANCH  28  30
ENDBRANCH   6  28
TORSDOF 7
ENDMDL
MODEL 19
REMARK VINA RESULT:   -10.511      3.569     12.278
REMARK INTER + INTRA:         -13.926
REMARK INTER:                 -12.599
REMARK INTRA:                  -1.327
REMARK CONF_INDEPENDENT:        2.088
REMARK UNBOUND:                -1.327
REMARK SMILES Cc1cn(-c2cc(NC(=O)c3ccc(C)c(Nc4nccc(-c5cccnc5)n4)c3)cc(C(F)(F)F)c2)cn1
REMARK SMILES IDX 11 1 12 2 13 3 14 4 15 5 16 6 30 7 9 8 10 9 8 10 7 12 6 13
REMARK SMILES IDX 31 14 5 15 32 16 37 17 4 18 3 19 38 20 2 21 39 22 1 23 33 24
REMARK SMILES IDX 34 25 35 26 36 27 17 28 18 30 19 31 29 32 20 33 22 34 21 35
REMARK SMILES IDX 23 36 24 37 28 38 25 39 27 40 26 41
REMARK H PARENT 8 11 17 29
ROOT
ATOM      1  C   UNL     1      25.581   3.753  51.937  1.00  0.00     0.042 A 
ATOM      2  C   UNL     1      24.841   3.930  50.758  1.00  0.00     0.014 A 
ATOM      3  C   UNL     1      23.500   4.316  50.792  1.00  0.00     0.006 A 
ATOM      4  C   UNL     1      22.824   4.460  51.993  1.00  0.00    -0.027 A 
ATOM      5  C   UNL     1      21.360   4.875  52.014  1.00  0.00     0.046 C 
ATOM      6  C   UNL     1      23.525   4.185  53.166  1.00  0.00     0.045 A 
ATOM      7  C   UNL     1      24.877   3.822  53.112  1.00  0.00     0.040 A 
ENDROOT
BRANCH   1   8
ATOM      8  C   UNL     1      26.958   3.225  51.998  1.00  0.00     0.255 C 
ATOM      9  O   UNL     1      27.550   3.201  50.947  1.00  0.00    -0.269 OA
ATOM     10  N   UNL     1      27.479   3.072  53.224  1.00  0.00    -0.322 N 
ATOM     11  H   UNL     1      26.860   3.269  54.024  1.00  0.00     0.170 HD
BRANCH  10  12
ATOM     12  C   UNL     1      28.777   2.672  53.515  1.00  0.00     0.044 A 
ATOM     13  C   UNL     1      29.418   1.667  52.748  1.00  0.00     0.052 A 
ATOM     14  C   UNL     1      29.444   3.170  54.656  1.00  0.00     0.039 A 
ATOM     15  C   UNL     1      30.727   1.265  53.026  1.00  0.00     0.049 A 
ATOM     16  C   UNL     1      30.786   2.775  54.924  1.00  0.00     0.060 A 
ATOM     17  C   UNL     1      31.390   1.804  54.124  1.00  0.00     0.039 A 
BRANCH  15  18
ATOM     18  N   UNL     1      31.384   0.302  52.246  1.00  0.00    -0.306 N 
ATOM     19  C   UNL     1      32.737   0.210  51.924  1.00  0.00     0.116 A 
ATOM     20  C   UNL     1      30.817  -0.699  51.562  1.00  0.00     0.204 A 
ATOM     21  C   UNL     1      32.901  -0.830  51.079  1.00  0.00     0.056 A 
ATOM     22  N   UNL     1      31.692  -1.406  50.890  1.00  0.00    -0.242 NA
ATOM     23  C   UNL     1      34.184  -1.338  50.468  1.00  0.00     0.068 C 
ENDBRANCH  15  18
BRANCH  16  24
ATOM     24  C   UNL     1      31.488   3.364  56.104  1.00  0.00     0.416 C 
ATOM     25  F   UNL     1      32.743   3.795  55.864  1.00  0.00    -0.166 F 
ATOM     26  F   UNL     1      30.889   4.478  56.510  1.00  0.00    -0.166 F 
ATOM     27  F   UNL     1      31.649   2.472  57.103  1.00  0.00    -0.166 F 
ENDBRANCH  16  24
ENDBRANCH  10  12
ENDBRANCH   1   8
BRANCH   6  28
ATOM     28  N   UNL     1      22.915   4.479  54.392  1.00  0.00    -0.324 N 
ATOM     29  H   UNL     1      22.338   3.771  54.868  1.00  0.00     0.170 HD
BRANCH  28  30
ATOM     30  C   UNL     1      23.095   5.740  54.964  1.00  0.00     0.227 A 
ATOM     31  N   UNL     1      24.166   6.232  55.574  1.00  0.00    -0.221 NA
ATOM     32  N   UNL     1      21.917   6.408  54.868  1.00  0.00    -0.213 NA
ATOM     33  C   UNL     1      24.057   7.475  56.080  1.00  0.00     0.117 A 
ATOM     34  C   UNL     1      21.847   7.628  55.413  1.00  0.00     0.077 A 
ATOM     35  C   UNL     1      22.915   8.179  56.029  1.00  0.00     0.049 A 
BRANCH  34  36
ATOM     36  C   UNL     1      20.548   8.331  55.250  1.00  0.00     0.019 A 
ATOM     37  C   UNL     1      19.782   8.199  54.081  1.00  0.00     0.013 A 
ATOM     38  C   UNL     1      20.055   9.169  56.270  1.00  0.00     0.121 A 
ATOM     39  C   UNL     1      18.587   8.901  53.974  1.00  0.00     0.021 A 
ATOM     40  N   UNL     1      18.909   9.853  56.170  1.00  0.00    -0.264 NA
ATOM     41  C   UNL     1      18.183   9.689  55.051  1.00  0.00     0.111 A 
ENDBRANCH  34  36
ENDBRANCH  28  30
ENDBRANCH   6  28
TORSDOF 7
ENDMDL
MODEL 20
REMARK VINA RESULT:   -10.438      5.147      8.095
REMARK INTER + INTRA:         -13.697
REMARK INTER:                 -12.526
REMARK INTRA:                  -1.171
REMARK CONF_INDEPENDENT:        2.088
REMARK UNBOUND:                -1.171
REMARK SMILES Cc1cn(-c2cc(NC(=O)c3ccc(C)c(Nc4nccc(-c5cccnc5)n4)c3)cc(C(F)(F)F)c2)cn1
REMARK SMILES IDX 11 1 12 2 13 3 14 4 15 5 16 6 30 7 9 8 10 9 8 10 7 12 6 13
REMARK SMILES IDX 31 14 5 15 32 16 37 17 4 18 3 19 38 20 2 21 39 22 1 23 33 24
REMARK SMILES IDX 34 25 35 26 36 27 17 28 18 30 19 31 29 32 20 33 22 34 21 35
REMARK SMILES IDX 23 36 24 37 28 38 25 39 27 40 26 41
REMARK H PARENT 8 11 17 29
ROOT
ATOM      1  C   UNL     1      23.440   5.760  53.904  1.00  0.00     0.042 A 
ATOM      2  C   UNL     1      23.257   6.547  52.757  1.00  0.00     0.014 A 
ATOM      3  C   UNL     1      23.701   6.121  51.505  1.00  0.00     0.006 A 
ATOM      4  C   UNL     1      24.413   4.941  51.358  1.00  0.00    -0.027 A 
ATOM      5  C   UNL     1      24.898   4.492  49.987  1.00  0.00     0.046 C 
ATOM      6  C   UNL     1      24.688   4.205  52.510  1.00  0.00     0.045 A 
ATOM      7  C   UNL     1      24.213   4.638  53.754  1.00  0.00     0.040 A 
ENDROOT
BRANCH   1   8
ATOM      8  C   UNL     1      23.118   6.187  55.280  1.00  0.00     0.255 C 
ATOM      9  O   UNL     1      22.027   5.865  55.681  1.00  0.00    -0.269 OA
ATOM     10  N   UNL     1      24.143   6.654  56.010  1.00  0.00    -0.322 N 
ATOM     11  H   UNL     1      25.053   6.740  55.536  1.00  0.00     0.170 HD
BRANCH  10  12
ATOM     12  C   UNL     1      24.088   7.031  57.346  1.00  0.00     0.044 A 
ATOM     13  C   UNL     1      25.074   6.597  58.265  1.00  0.00     0.052 A 
ATOM     14  C   UNL     1      22.983   7.757  57.842  1.00  0.00     0.039 A 
ATOM     15  C   UNL     1      25.033   6.979  59.609  1.00  0.00     0.049 A 
ATOM     16  C   UNL     1      22.954   8.165  59.206  1.00  0.00     0.060 A 
ATOM     17  C   UNL     1      23.964   7.739  60.072  1.00  0.00     0.039 A 
BRANCH  15  18
ATOM     18  N   UNL     1      26.028   6.589  60.518  1.00  0.00    -0.306 N 
ATOM     19  C   UNL     1      26.024   5.522  61.415  1.00  0.00     0.116 A 
ATOM     20  C   UNL     1      27.172   7.232  60.779  1.00  0.00     0.204 A 
ATOM     21  C   UNL     1      27.156   5.585  62.150  1.00  0.00     0.056 A 
ATOM     22  N   UNL     1      27.876   6.642  61.714  1.00  0.00    -0.242 NA
ATOM     23  C   UNL     1      27.612   4.640  63.235  1.00  0.00     0.068 C 
ENDBRANCH  15  18
BRANCH  16  24
ATOM     24  C   UNL     1      21.802   8.984  59.690  1.00  0.00     0.416 C 
ATOM     25  F   UNL     1      20.814   9.163  58.792  1.00  0.00    -0.166 F 
ATOM     26  F   UNL     1      21.165   8.371  60.681  1.00  0.00    -0.166 F 
ATOM     27  F   UNL     1      22.166  10.242  60.012  1.00  0.00    -0.166 F 
ENDBRANCH  16  24
ENDBRANCH  10  12
ENDBRANCH   1   8
BRANCH   6  28
ATOM     28  N   UNL     1      25.262   2.935  52.368  1.00  0.00    -0.324 N 
ATOM     29  H   UNL     1      24.664   2.097  52.333  1.00  0.00     0.170 HD
BRANCH  28  30
ATOM     30  C   UNL     1      26.650   2.815  52.275  1.00  0.00     0.227 A 
ATOM     31  N   UNL     1      27.512   3.595  51.636  1.00  0.00    -0.221 NA
ATOM     32  N   UNL     1      27.007   1.668  52.910  1.00  0.00    -0.213 NA
ATOM     33  C   UNL     1      28.806   3.222  51.671  1.00  0.00     0.117 A 
ATOM     34  C   UNL     1      28.299   1.323  52.890  1.00  0.00     0.077 A 
ATOM     35  C   UNL     1      29.218   2.093  52.268  1.00  0.00     0.049 A 
BRANCH  34  36
ATOM     36  C   UNL     1      28.644   0.080  53.628  1.00  0.00     0.019 A 
ATOM     37  C   UNL     1      27.892  -0.352  54.732  1.00  0.00     0.013 A 
ATOM     38  C   UNL     1      29.754  -0.696  53.242  1.00  0.00     0.121 A 
ATOM     39  C   UNL     1      28.276  -1.509  55.399  1.00  0.00     0.021 A 
ATOM     40  N   UNL     1      30.134  -1.808  53.886  1.00  0.00    -0.264 NA
ATOM     41  C   UNL     1      29.382  -2.212  54.923  1.00  0.00     0.111 A 
ENDBRANCH  34  36
ENDBRANCH  28  30
ENDBRANCH   6  28
TORSDOF 7
ENDMDL
