MODEL 1
REMARK VINA RESULT:   -15.151      0.000      0.000
REMARK INTER + INTRA:         -18.421
REMARK INTER:                 -17.239
REMARK INTRA:                  -1.182
REMARK CONF_INDEPENDENT:        2.088
REMARK UNBOUND:                -1.182
REMARK SMILES Cc1cn(-c2cc(NC(=O)c3ccc(C)c(Nc4nccc(-c5cccnc5)n4)c3)cc(C(F)(F)F)c2)cn1
REMARK SMILES IDX 11 1 12 2 13 3 14 4 15 5 16 6 30 7 9 8 10 9 8 10 7 12 6 13
REMARK SMILES IDX 31 14 5 15 32 16 37 17 4 18 3 19 38 20 2 21 39 22 1 23 33 24
REMARK SMILES IDX 34 25 35 26 36 27 17 28 18 30 19 31 29 32 20 33 22 34 21 35
REMARK SMILES IDX 23 36 24 37 28 38 25 39 27 40 26 41
REMARK H PARENT 8 11 17 29
ROOT
ATOM      1  C   UNL     1      27.976   1.863  53.224  1.00  0.00     0.042 A 
ATOM      2  C   UNL     1      27.699   1.353  54.502  1.00  0.00     0.014 A 
ATOM      3  C   UNL     1      28.421   0.281  55.029  1.00  0.00     0.006 A 
ATOM      4  C   UNL     1      29.383  -0.375  54.278  1.00  0.00    -0.027 A 
ATOM      5  C   UNL     1      30.157  -1.548  54.863  1.00  0.00     0.046 C 
ATOM      6  C   UNL     1      29.591   0.061  52.971  1.00  0.00     0.045 A 
ATOM      7  C   UNL     1      28.874   1.154  52.469  1.00  0.00     0.040 A 
ENDROOT
BRANCH   1   8
ATOM      8  C   UNL     1      27.184   2.905  52.542  1.00  0.00     0.255 C 
ATOM      9  O   UNL     1      27.532   3.167  51.417  1.00  0.00    -0.269 OA
ATOM     10  N   UNL     1      26.034   3.257  53.136  1.00  0.00    -0.322 N 
ATOM     11  H   UNL     1      25.828   2.826  54.048  1.00  0.00     0.170 HD
BRANCH  10  12
ATOM     12  C   UNL     1      25.096   4.151  52.634  1.00  0.00     0.044 A 
ATOM     13  C   UNL     1      24.173   4.796  53.493  1.00  0.00     0.052 A 
ATOM     14  C   UNL     1      24.963   4.343  51.241  1.00  0.00     0.039 A 
ATOM     15  C   UNL     1      23.233   5.704  52.998  1.00  0.00     0.049 A 
ATOM     16  C   UNL     1      24.019   5.285  50.741  1.00  0.00     0.060 A 
ATOM     17  C   UNL     1      23.148   5.923  51.627  1.00  0.00     0.039 A 
BRANCH  15  18
ATOM     18  N   UNL     1      22.343   6.380  53.846  1.00  0.00    -0.306 N 
ATOM     19  C   UNL     1      22.032   6.118  55.179  1.00  0.00     0.116 A 
ATOM     20  C   UNL     1      21.523   7.384  53.511  1.00  0.00     0.204 A 
ATOM     21  C   UNL     1      21.059   6.973  55.562  1.00  0.00     0.056 A 
ATOM     22  N   UNL     1      20.777   7.778  54.514  1.00  0.00    -0.242 NA
ATOM     23  C   UNL     1      20.407   7.089  56.918  1.00  0.00     0.068 C 
ENDBRANCH  15  18
BRANCH  16  24
ATOM     24  C   UNL     1      23.940   5.514  49.266  1.00  0.00     0.416 C 
ATOM     25  F   UNL     1      24.607   6.598  48.822  1.00  0.00    -0.166 F 
ATOM     26  F   UNL     1      24.535   4.532  48.599  1.00  0.00    -0.166 F 
ATOM     27  F   UNL     1      22.676   5.730  48.847  1.00  0.00    -0.166 F 
ENDBRANCH  16  24
ENDBRANCH  10  12
ENDBRANCH   1   8
BRANCH   6  28
ATOM     28  N   UNL     1      30.667  -0.477  52.252  1.00  0.00    -0.324 N 
ATOM     29  H   UNL     1      30.524  -1.289  51.635  1.00  0.00     0.170 HD
BRANCH  28  30
ATOM     30  C   UNL     1      31.933   0.097  52.378  1.00  0.00     0.227 A 
ATOM     31  N   UNL     1      32.332   1.062  53.197  1.00  0.00    -0.221 NA
ATOM     32  N   UNL     1      32.732  -0.455  51.429  1.00  0.00    -0.213 NA
ATOM     33  C   UNL     1      33.611   1.465  53.081  1.00  0.00     0.117 A 
ATOM     34  C   UNL     1      33.987  -0.000  51.331  1.00  0.00     0.077 A 
ATOM     35  C   UNL     1      34.445   0.968  52.153  1.00  0.00     0.049 A 
BRANCH  34  36
ATOM     36  C   UNL     1      34.831  -0.661  50.301  1.00  0.00     0.019 A 
ATOM     37  C   UNL     1      36.113  -0.186  49.986  1.00  0.00     0.013 A 
ATOM     38  C   UNL     1      34.353  -1.784  49.598  1.00  0.00     0.121 A 
ATOM     39  C   UNL     1      36.847  -0.828  48.996  1.00  0.00     0.021 A 
ATOM     40  N   UNL     1      35.052  -2.403  48.638  1.00  0.00    -0.264 NA
ATOM     41  C   UNL     1      36.286  -1.943  48.374  1.00  0.00     0.111 A 
ENDBRANCH  34  36
ENDBRANCH  28  30
ENDBRANCH   6  28
TORSDOF 7
ENDMDL
MODEL 2
REMARK VINA RESULT:   -13.871      2.235      3.673
REMARK INTER + INTRA:         -17.183
REMARK INTER:                 -15.959
REMARK INTRA:                  -1.224
REMARK CONF_INDEPENDENT:        2.088
REMARK UNBOUND:                -1.224
REMARK SMILES Cc1cn(-c2cc(NC(=O)c3ccc(C)c(Nc4nccc(-c5cccnc5)n4)c3)cc(C(F)(F)F)c2)cn1
REMARK SMILES IDX 11 1 12 2 13 3 14 4 15 5 16 6 30 7 9 8 10 9 8 10 7 12 6 13
REMARK SMILES IDX 31 14 5 15 32 16 37 17 4 18 3 19 38 20 2 21 39 22 1 23 33 24
REMARK SMILES IDX 34 25 35 26 36 27 17 28 18 30 19 31 29 32 20 33 22 34 21 35
REMARK SMILES IDX 23 36 24 37 28 38 25 39 27 40 26 41
REMARK H PARENT 8 11 17 29
ROOT
ATOM      1  C   UNL     1      28.232   1.625  53.634  1.00  0.00     0.042 A 
ATOM      2  C   UNL     1      28.033   1.030  54.889  1.00  0.00     0.014 A 
ATOM      3  C   UNL     1      28.793  -0.065  55.303  1.00  0.00     0.006 A 
ATOM      4  C   UNL     1      29.716  -0.659  54.458  1.00  0.00    -0.027 A 
ATOM      5  C   UNL     1      30.532  -1.858  54.921  1.00  0.00     0.046 C 
ATOM      6  C   UNL     1      29.845  -0.138  53.172  1.00  0.00     0.045 A 
ATOM      7  C   UNL     1      29.091   0.977  52.784  1.00  0.00     0.040 A 
ENDROOT
BRANCH   1   8
ATOM      8  C   UNL     1      27.393   2.699  53.067  1.00  0.00     0.255 C 
ATOM      9  O   UNL     1      27.836   3.237  52.081  1.00  0.00    -0.269 OA
ATOM     10  N   UNL     1      26.142   2.786  53.543  1.00  0.00    -0.322 N 
ATOM     11  H   UNL     1      25.888   2.146  54.309  1.00  0.00     0.170 HD
BRANCH  10  12
ATOM     12  C   UNL     1      25.159   3.661  53.099  1.00  0.00     0.044 A 
ATOM     13  C   UNL     1      24.989   3.922  51.716  1.00  0.00     0.052 A 
ATOM     14  C   UNL     1      24.388   4.402  54.020  1.00  0.00     0.039 A 
ATOM     15  C   UNL     1      23.996   4.793  51.259  1.00  0.00     0.049 A 
ATOM     16  C   UNL     1      23.362   5.272  53.552  1.00  0.00     0.060 A 
ATOM     17  C   UNL     1      23.208   5.478  52.179  1.00  0.00     0.039 A 
BRANCH  15  18
ATOM     18  N   UNL     1      23.792   5.026  49.891  1.00  0.00    -0.306 N 
ATOM     19  C   UNL     1      23.826   6.232  49.193  1.00  0.00     0.116 A 
ATOM     20  C   UNL     1      23.424   4.126  48.971  1.00  0.00     0.204 A 
ATOM     21  C   UNL     1      23.485   5.987  47.909  1.00  0.00     0.056 A 
ATOM     22  N   UNL     1      23.269   4.658  47.783  1.00  0.00    -0.242 NA
ATOM     23  C   UNL     1      23.399   6.970  46.767  1.00  0.00     0.068 C 
ENDBRANCH  15  18
BRANCH  16  24
ATOM     24  C   UNL     1      22.520   5.998  54.550  1.00  0.00     0.416 C 
ATOM     25  F   UNL     1      21.750   6.979  54.040  1.00  0.00    -0.166 F 
ATOM     26  F   UNL     1      21.615   5.190  55.089  1.00  0.00    -0.166 F 
ATOM     27  F   UNL     1      23.262   6.634  55.481  1.00  0.00    -0.166 F 
ENDBRANCH  16  24
ENDBRANCH  10  12
ENDBRANCH   1   8
BRANCH   6  28
ATOM     28  N   UNL     1      30.881  -0.615  52.359  1.00  0.00    -0.324 N 
ATOM     29  H   UNL     1      30.735  -1.442  51.764  1.00  0.00     0.170 HD
BRANCH  28  30
ATOM     30  C   UNL     1      32.114   0.039  52.363  1.00  0.00     0.227 A 
ATOM     31  N   UNL     1      32.496   1.092  53.076  1.00  0.00    -0.221 NA
ATOM     32  N   UNL     1      32.894  -0.545  51.418  1.00  0.00    -0.213 NA
ATOM     33  C   UNL     1      33.740   1.555  52.853  1.00  0.00     0.117 A 
ATOM     34  C   UNL     1      34.111  -0.029  51.209  1.00  0.00     0.077 A 
ATOM     35  C   UNL     1      34.552   1.030  51.921  1.00  0.00     0.049 A 
BRANCH  34  36
ATOM     36  C   UNL     1      34.938  -0.726  50.189  1.00  0.00     0.019 A 
ATOM     37  C   UNL     1      36.336  -0.791  50.295  1.00  0.00     0.013 A 
ATOM     38  C   UNL     1      34.333  -1.332  49.071  1.00  0.00     0.121 A 
ATOM     39  C   UNL     1      37.060  -1.433  49.299  1.00  0.00     0.021 A 
ATOM     40  N   UNL     1      35.026  -1.946  48.103  1.00  0.00    -0.264 NA
ATOM     41  C   UNL     1      36.360  -2.015  48.243  1.00  0.00     0.111 A 
ENDBRANCH  34  36
ENDBRANCH  28  30
ENDBRANCH   6  28
TORSDOF 7
ENDMDL
MODEL 3
REMARK VINA RESULT:   -12.450      1.550      3.610
REMARK INTER + INTRA:         -16.108
REMARK INTER:                 -14.538
REMARK INTRA:                  -1.570
REMARK CONF_INDEPENDENT:        2.088
REMARK UNBOUND:                -1.570
REMARK SMILES Cc1cn(-c2cc(NC(=O)c3ccc(C)c(Nc4nccc(-c5cccnc5)n4)c3)cc(C(F)(F)F)c2)cn1
REMARK SMILES IDX 11 1 12 2 13 3 14 4 15 5 16 6 30 7 9 8 10 9 8 10 7 12 6 13
REMARK SMILES IDX 31 14 5 15 32 16 37 17 4 18 3 19 38 20 2 21 39 22 1 23 33 24
REMARK SMILES IDX 34 25 35 26 36 27 17 28 18 30 19 31 29 32 20 33 22 34 21 35
REMARK SMILES IDX 23 36 24 37 28 38 25 39 27 40 26 41
REMARK H PARENT 8 11 17 29
ROOT
ATOM      1  C   UNL     1      27.705   1.617  52.910  1.00  0.00     0.042 A 
ATOM      2  C   UNL     1      27.364   1.010  54.128  1.00  0.00     0.014 A 
ATOM      3  C   UNL     1      28.064  -0.097  54.610  1.00  0.00     0.006 A 
ATOM      4  C   UNL     1      29.069  -0.692  53.864  1.00  0.00    -0.027 A 
ATOM      5  C   UNL     1      29.819  -1.903  54.399  1.00  0.00     0.046 C 
ATOM      6  C   UNL     1      29.343  -0.156  52.606  1.00  0.00     0.045 A 
ATOM      7  C   UNL     1      28.646   0.970  52.152  1.00  0.00     0.040 A 
ENDROOT
BRANCH   1   8
ATOM      8  C   UNL     1      26.942   2.705  52.268  1.00  0.00     0.255 C 
ATOM      9  O   UNL     1      27.172   2.877  51.095  1.00  0.00    -0.269 OA
ATOM     10  N   UNL     1      25.916   3.205  52.973  1.00  0.00    -0.322 N 
ATOM     11  H   UNL     1      25.782   2.840  53.926  1.00  0.00     0.170 HD
BRANCH  10  12
ATOM     12  C   UNL     1      25.018   4.170  52.534  1.00  0.00     0.044 A 
ATOM     13  C   UNL     1      24.218   4.890  53.455  1.00  0.00     0.052 A 
ATOM     14  C   UNL     1      24.795   4.369  51.154  1.00  0.00     0.039 A 
ATOM     15  C   UNL     1      23.318   5.870  53.024  1.00  0.00     0.049 A 
ATOM     16  C   UNL     1      23.895   5.383  50.718  1.00  0.00     0.060 A 
ATOM     17  C   UNL     1      23.148   6.091  51.661  1.00  0.00     0.039 A 
BRANCH  15  18
ATOM     18  N   UNL     1      22.552   6.618  53.931  1.00  0.00    -0.306 N 
ATOM     19  C   UNL     1      21.922   6.198  55.101  1.00  0.00     0.116 A 
ATOM     20  C   UNL     1      22.186   7.899  53.804  1.00  0.00     0.204 A 
ATOM     21  C   UNL     1      21.227   7.241  55.604  1.00  0.00     0.056 A 
ATOM     22  N   UNL     1      21.432   8.305  54.796  1.00  0.00    -0.242 NA
ATOM     23  C   UNL     1      20.400   7.284  56.866  1.00  0.00     0.068 C 
ENDBRANCH  15  18
BRANCH  16  24
ATOM     24  C   UNL     1      23.723   5.613  49.251  1.00  0.00     0.416 C 
ATOM     25  F   UNL     1      22.985   4.684  48.612  1.00  0.00    -0.166 F 
ATOM     26  F   UNL     1      23.031   6.722  49.020  1.00  0.00    -0.166 F 
ATOM     27  F   UNL     1      24.898   5.591  48.588  1.00  0.00    -0.166 F 
ENDBRANCH  16  24
ENDBRANCH  10  12
ENDBRANCH   1   8
BRANCH   6  28
ATOM     28  N   UNL     1      30.458  -0.635  51.907  1.00  0.00    -0.324 N 
ATOM     29  H   UNL     1      30.367  -1.442  51.274  1.00  0.00     0.170 HD
BRANCH  28  30
ATOM     30  C   UNL     1      31.695  -0.009  52.075  1.00  0.00     0.227 A 
ATOM     31  N   UNL     1      32.839  -0.242  51.444  1.00  0.00    -0.221 NA
ATOM     32  N   UNL     1      31.572   0.879  53.095  1.00  0.00    -0.213 NA
ATOM     33  C   UNL     1      33.904   0.483  51.834  1.00  0.00     0.117 A 
ATOM     34  C   UNL     1      32.666   1.553  53.468  1.00  0.00     0.077 A 
ATOM     35  C   UNL     1      33.849   1.364  52.845  1.00  0.00     0.049 A 
BRANCH  34  36
ATOM     36  C   UNL     1      32.471   2.537  54.565  1.00  0.00     0.019 A 
ATOM     37  C   UNL     1      33.369   3.597  54.770  1.00  0.00     0.013 A 
ATOM     38  C   UNL     1      31.377   2.421  55.444  1.00  0.00     0.121 A 
ATOM     39  C   UNL     1      33.150   4.472  55.827  1.00  0.00     0.021 A 
ATOM     40  N   UNL     1      31.166   3.256  56.470  1.00  0.00    -0.264 NA
ATOM     41  C   UNL     1      32.026   4.275  56.627  1.00  0.00     0.111 A 
ENDBRANCH  34  36
ENDBRANCH  28  30
ENDBRANCH   6  28
TORSDOF 7
ENDMDL
MODEL 4
REMARK VINA RESULT:   -12.346      1.353      2.032
REMARK INTER + INTRA:         -15.885
REMARK INTER:                 -14.434
REMARK INTRA:                  -1.451
REMARK CONF_INDEPENDENT:        2.088
REMARK UNBOUND:                -1.451
REMARK SMILES Cc1cn(-c2cc(NC(=O)c3ccc(C)c(Nc4nccc(-c5cccnc5)n4)c3)cc(C(F)(F)F)c2)cn1
REMARK SMILES IDX 11 1 12 2 13 3 14 4 15 5 16 6 30 7 9 8 10 9 8 10 7 12 6 13
REMARK SMILES IDX 31 14 5 15 32 16 37 17 4 18 3 19 38 20 2 21 39 22 1 23 33 24
REMARK SMILES IDX 34 25 35 26 36 27 17 28 18 30 19 31 29 32 20 33 22 34 21 35
REMARK SMILES IDX 23 36 24 37 28 38 25 39 27 40 26 41
REMARK H PARENT 8 11 17 29
ROOT
ATOM      1  C   UNL     1      28.175   1.860  53.173  1.00  0.00     0.042 A 
ATOM      2  C   UNL     1      27.781   0.558  53.515  1.00  0.00     0.014 A 
ATOM      3  C   UNL     1      28.650  -0.318  54.168  1.00  0.00     0.006 A 
ATOM      4  C   UNL     1      29.964   0.036  54.429  1.00  0.00    -0.027 A 
ATOM      5  C   UNL     1      30.903  -0.932  55.135  1.00  0.00     0.046 C 
ATOM      6  C   UNL     1      30.392   1.291  53.999  1.00  0.00     0.045 A 
ATOM      7  C   UNL     1      29.498   2.164  53.368  1.00  0.00     0.040 A 
ENDROOT
BRANCH   1   8
ATOM      8  C   UNL     1      27.369   2.803  52.374  1.00  0.00     0.255 C 
ATOM      9  O   UNL     1      27.715   2.936  51.225  1.00  0.00    -0.269 OA
ATOM     10  N   UNL     1      26.214   3.207  52.923  1.00  0.00    -0.322 N 
ATOM     11  H   UNL     1      26.013   2.883  53.880  1.00  0.00     0.170 HD
BRANCH  10  12
ATOM     12  C   UNL     1      25.264   4.022  52.320  1.00  0.00     0.044 A 
ATOM     13  C   UNL     1      24.305   4.718  53.096  1.00  0.00     0.052 A 
ATOM     14  C   UNL     1      25.158   4.080  50.913  1.00  0.00     0.039 A 
ATOM     15  C   UNL     1      23.352   5.548  52.499  1.00  0.00     0.049 A 
ATOM     16  C   UNL     1      24.201   4.944  50.308  1.00  0.00     0.060 A 
ATOM     17  C   UNL     1      23.293   5.636  51.112  1.00  0.00     0.039 A 
BRANCH  15  18
ATOM     18  N   UNL     1      22.425   6.274  53.261  1.00  0.00    -0.306 N 
ATOM     19  C   UNL     1      21.863   7.523  53.000  1.00  0.00     0.116 A 
ATOM     20  C   UNL     1      21.949   5.947  54.468  1.00  0.00     0.204 A 
ATOM     21  C   UNL     1      21.088   7.865  54.052  1.00  0.00     0.056 A 
ATOM     22  N   UNL     1      21.129   6.852  54.946  1.00  0.00    -0.242 NA
ATOM     23  C   UNL     1      20.259   9.115  54.228  1.00  0.00     0.068 C 
ENDBRANCH  15  18
BRANCH  16  24
ATOM     24  C   UNL     1      24.151   5.032  48.817  1.00  0.00     0.416 C 
ATOM     25  F   UNL     1      24.698   3.986  48.166  1.00  0.00    -0.166 F 
ATOM     26  F   UNL     1      22.897   5.002  48.379  1.00  0.00    -0.166 F 
ATOM     27  F   UNL     1      24.838   6.091  48.342  1.00  0.00    -0.166 F 
ENDBRANCH  16  24
ENDBRANCH  10  12
ENDBRANCH   1   8
BRANCH   6  28
ATOM     28  N   UNL     1      31.662   1.733  54.394  1.00  0.00    -0.324 N 
ATOM     29  H   UNL     1      31.757   2.445  55.132  1.00  0.00     0.170 HD
BRANCH  28  30
ATOM     30  C   UNL     1      32.796   1.201  53.779  1.00  0.00     0.227 A 
ATOM     31  N   UNL     1      34.071   1.344  54.118  1.00  0.00    -0.221 NA
ATOM     32  N   UNL     1      32.389   0.537  52.667  1.00  0.00    -0.213 NA
ATOM     33  C   UNL     1      34.980   0.754  53.318  1.00  0.00     0.117 A 
ATOM     34  C   UNL     1      33.330  -0.005  51.886  1.00  0.00     0.077 A 
ATOM     35  C   UNL     1      34.640   0.097  52.198  1.00  0.00     0.049 A 
BRANCH  34  36
ATOM     36  C   UNL     1      32.831  -0.751  50.701  1.00  0.00     0.019 A 
ATOM     37  C   UNL     1      31.458  -0.925  50.466  1.00  0.00     0.013 A 
ATOM     38  C   UNL     1      33.734  -1.321  49.782  1.00  0.00     0.121 A 
ATOM     39  C   UNL     1      31.050  -1.652  49.356  1.00  0.00     0.021 A 
ATOM     40  N   UNL     1      33.347  -2.030  48.714  1.00  0.00    -0.264 NA
ATOM     41  C   UNL     1      32.027  -2.159  48.500  1.00  0.00     0.111 A 
ENDBRANCH  34  36
ENDBRANCH  28  30
ENDBRANCH   6  28
TORSDOF 7
ENDMDL
MODEL 5
REMARK VINA RESULT:   -11.541      4.074     11.203
REMARK INTER + INTRA:         -14.789
REMARK INTER:                 -13.629
REMARK INTRA:                  -1.159
REMARK CONF_INDEPENDENT:        2.088
REMARK UNBOUND:                -1.159
REMARK SMILES Cc1cn(-c2cc(NC(=O)c3ccc(C)c(Nc4nccc(-c5cccnc5)n4)c3)cc(C(F)(F)F)c2)cn1
REMARK SMILES IDX 11 1 12 2 13 3 14 4 15 5 16 6 30 7 9 8 10 9 8 10 7 12 6 13
REMARK SMILES IDX 31 14 5 15 32 16 37 17 4 18 3 19 38 20 2 21 39 22 1 23 33 24
REMARK SMILES IDX 34 25 35 26 36 27 17 28 18 30 19 31 29 32 20 33 22 34 21 35
REMARK SMILES IDX 23 36 24 37 28 38 25 39 27 40 26 41
REMARK H PARENT 8 11 17 29
ROOT
ATOM      1  C   UNL     1      25.852   3.838  51.998  1.00  0.00     0.042 A 
ATOM      2  C   UNL     1      25.275   4.353  50.827  1.00  0.00     0.014 A 
ATOM      3  C   UNL     1      24.148   5.175  50.873  1.00  0.00     0.006 A 
ATOM      4  C   UNL     1      23.506   5.448  52.070  1.00  0.00    -0.027 A 
ATOM      5  C   UNL     1      22.273   6.340  52.103  1.00  0.00     0.046 C 
ATOM      6  C   UNL     1      24.013   4.855  53.225  1.00  0.00     0.045 A 
ATOM      7  C   UNL     1      25.160   4.053  53.161  1.00  0.00     0.040 A 
ENDROOT
BRANCH   1   8
ATOM      8  C   UNL     1      26.960   2.864  52.034  1.00  0.00     0.255 C 
ATOM      9  O   UNL     1      27.667   2.847  51.056  1.00  0.00    -0.269 OA
ATOM     10  N   UNL     1      27.211   2.297  53.224  1.00  0.00    -0.322 N 
ATOM     11  H   UNL     1      26.574   2.533  53.997  1.00  0.00     0.170 HD
BRANCH  10  12
ATOM     12  C   UNL     1      28.251   1.421  53.507  1.00  0.00     0.044 A 
ATOM     13  C   UNL     1      29.559   1.662  53.017  1.00  0.00     0.052 A 
ATOM     14  C   UNL     1      28.004   0.209  54.188  1.00  0.00     0.039 A 
ATOM     15  C   UNL     1      30.614   0.791  53.305  1.00  0.00     0.049 A 
ATOM     16  C   UNL     1      29.084  -0.665  54.500  1.00  0.00     0.060 A 
ATOM     17  C   UNL     1      30.364  -0.374  54.022  1.00  0.00     0.039 A 
BRANCH  15  18
ATOM     18  N   UNL     1      31.920   1.043  52.859  1.00  0.00    -0.306 N 
ATOM     19  C   UNL     1      32.557   0.582  51.708  1.00  0.00     0.116 A 
ATOM     20  C   UNL     1      32.873   1.719  53.512  1.00  0.00     0.204 A 
ATOM     21  C   UNL     1      33.838   1.008  51.735  1.00  0.00     0.056 A 
ATOM     22  N   UNL     1      34.007   1.745  52.855  1.00  0.00    -0.242 NA
ATOM     23  C   UNL     1      34.915   0.779  50.702  1.00  0.00     0.068 C 
ENDBRANCH  15  18
BRANCH  16  24
ATOM     24  C   UNL     1      28.803  -1.911  55.274  1.00  0.00     0.416 C 
ATOM     25  F   UNL     1      27.915  -2.749  54.703  1.00  0.00    -0.166 F 
ATOM     26  F   UNL     1      29.886  -2.675  55.359  1.00  0.00    -0.166 F 
ATOM     27  F   UNL     1      28.259  -1.653  56.482  1.00  0.00    -0.166 F 
ENDBRANCH  16  24
ENDBRANCH  10  12
ENDBRANCH   1   8
BRANCH   6  28
ATOM     28  N   UNL     1      23.482   5.243  54.462  1.00  0.00    -0.324 N 
ATOM     29  H   UNL     1      22.816   4.633  54.956  1.00  0.00     0.170 HD
BRANCH  28  30
ATOM     30  C   UNL     1      23.864   6.465  55.019  1.00  0.00     0.227 A 
ATOM     31  N   UNL     1      23.786   7.681  54.494  1.00  0.00    -0.221 NA
ATOM     32  N   UNL     1      24.434   6.207  56.225  1.00  0.00    -0.213 NA
ATOM     33  C   UNL     1      24.271   8.694  55.236  1.00  0.00     0.117 A 
ATOM     34  C   UNL     1      24.931   7.242  56.912  1.00  0.00     0.077 A 
ATOM     35  C   UNL     1      24.859   8.501  56.427  1.00  0.00     0.049 A 
BRANCH  34  36
ATOM     36  C   UNL     1      25.512   6.912  58.240  1.00  0.00     0.019 A 
ATOM     37  C   UNL     1      24.729   6.911  59.405  1.00  0.00     0.013 A 
ATOM     38  C   UNL     1      26.881   6.604  58.365  1.00  0.00     0.121 A 
ATOM     39  C   UNL     1      25.331   6.620  60.622  1.00  0.00     0.021 A 
ATOM     40  N   UNL     1      27.468   6.330  59.536  1.00  0.00    -0.264 NA
ATOM     41  C   UNL     1      26.691   6.311  60.631  1.00  0.00     0.111 A 
ENDBRANCH  34  36
ENDBRANCH  28  30
ENDBRANCH   6  28
TORSDOF 7
ENDMDL
MODEL 6
REMARK VINA RESULT:   -11.160      1.749      2.631
REMARK INTER + INTRA:         -14.590
REMARK INTER:                 -13.248
REMARK INTRA:                  -1.342
REMARK CONF_INDEPENDENT:        2.088
REMARK UNBOUND:                -1.342
REMARK SMILES Cc1cn(-c2cc(NC(=O)c3ccc(C)c(Nc4nccc(-c5cccnc5)n4)c3)cc(C(F)(F)F)c2)cn1
REMARK SMILES IDX 11 1 12 2 13 3 14 4 15 5 16 6 30 7 9 8 10 9 8 10 7 12 6 13
REMARK SMILES IDX 31 14 5 15 32 16 37 17 4 18 3 19 38 20 2 21 39 22 1 23 33 24
REMARK SMILES IDX 34 25 35 26 36 27 17 28 18 30 19 31 29 32 20 33 22 34 21 35
REMARK SMILES IDX 23 36 24 37 28 38 25 39 27 40 26 41
REMARK H PARENT 8 11 17 29
ROOT
ATOM      1  C   UNL     1      27.132   2.373  52.594  1.00  0.00     0.042 A 
ATOM      2  C   UNL     1      27.150   0.982  52.412  1.00  0.00     0.014 A 
ATOM      3  C   UNL     1      27.939   0.155  53.211  1.00  0.00     0.006 A 
ATOM      4  C   UNL     1      28.799   0.681  54.161  1.00  0.00    -0.027 A 
ATOM      5  C   UNL     1      29.660  -0.233  55.022  1.00  0.00     0.046 C 
ATOM      6  C   UNL     1      28.863   2.069  54.276  1.00  0.00     0.045 A 
ATOM      7  C   UNL     1      28.044   2.881  53.481  1.00  0.00     0.040 A 
ENDROOT
BRANCH   1   8
ATOM      8  C   UNL     1      26.429   3.330  51.716  1.00  0.00     0.255 C 
ATOM      9  O   UNL     1      26.666   3.222  50.537  1.00  0.00    -0.269 OA
ATOM     10  N   UNL     1      25.434   4.030  52.281  1.00  0.00    -0.322 N 
ATOM     11  H   UNL     1      25.283   3.896  53.291  1.00  0.00     0.170 HD
BRANCH  10  12
ATOM     12  C   UNL     1      24.589   4.919  51.628  1.00  0.00     0.044 A 
ATOM     13  C   UNL     1      23.867   5.900  52.352  1.00  0.00     0.052 A 
ATOM     14  C   UNL     1      24.339   4.788  50.245  1.00  0.00     0.039 A 
ATOM     15  C   UNL     1      23.022   6.805  51.704  1.00  0.00     0.049 A 
ATOM     16  C   UNL     1      23.496   5.725  49.583  1.00  0.00     0.060 A 
ATOM     17  C   UNL     1      22.826   6.696  50.331  1.00  0.00     0.039 A 
BRANCH  15  18
ATOM     18  N   UNL     1      22.335   7.806  52.406  1.00  0.00    -0.306 N 
ATOM     19  C   UNL     1      21.492   7.681  53.509  1.00  0.00     0.116 A 
ATOM     20  C   UNL     1      22.276   9.106  52.095  1.00  0.00     0.204 A 
ATOM     21  C   UNL     1      20.986   8.901  53.794  1.00  0.00     0.056 A 
ATOM     22  N   UNL     1      21.514   9.784  52.919  1.00  0.00    -0.242 NA
ATOM     23  C   UNL     1      20.043   9.277  54.911  1.00  0.00     0.068 C 
ENDBRANCH  15  18
BRANCH  16  24
ATOM     24  C   UNL     1      23.297   5.599  48.107  1.00  0.00     0.416 C 
ATOM     25  F   UNL     1      24.431   5.540  47.382  1.00  0.00    -0.166 F 
ATOM     26  F   UNL     1      22.715   4.446  47.801  1.00  0.00    -0.166 F 
ATOM     27  F   UNL     1      22.646   6.660  47.585  1.00  0.00    -0.166 F 
ENDBRANCH  16  24
ENDBRANCH  10  12
ENDBRANCH   1   8
BRANCH   6  28
ATOM     28  N   UNL     1      29.599   2.617  55.335  1.00  0.00    -0.324 N 
ATOM     29  H   UNL     1      29.136   2.848  56.225  1.00  0.00     0.170 HD
BRANCH  28  30
ATOM     30  C   UNL     1      30.967   2.849  55.173  1.00  0.00     0.227 A 
ATOM     31  N   UNL     1      31.732   3.761  55.759  1.00  0.00    -0.221 NA
ATOM     32  N   UNL     1      31.417   2.002  54.212  1.00  0.00    -0.213 NA
ATOM     33  C   UNL     1      33.025   3.797  55.386  1.00  0.00     0.117 A 
ATOM     34  C   UNL     1      32.702   2.096  53.852  1.00  0.00     0.077 A 
ATOM     35  C   UNL     1      33.525   2.997  54.431  1.00  0.00     0.049 A 
BRANCH  34  36
ATOM     36  C   UNL     1      33.154   1.125  52.822  1.00  0.00     0.019 A 
ATOM     37  C   UNL     1      34.401   1.249  52.190  1.00  0.00     0.013 A 
ATOM     38  C   UNL     1      32.325   0.052  52.439  1.00  0.00     0.121 A 
ATOM     39  C   UNL     1      34.760   0.326  51.216  1.00  0.00     0.021 A 
ATOM     40  N   UNL     1      32.662  -0.837  51.495  1.00  0.00    -0.264 NA
ATOM     41  C   UNL     1      33.872  -0.709  50.926  1.00  0.00     0.111 A 
ENDBRANCH  34  36
ENDBRANCH  28  30
ENDBRANCH   6  28
TORSDOF 7
ENDMDL
MODEL 7
REMARK VINA RESULT:   -11.085      4.432      7.891
REMARK INTER + INTRA:         -14.191
REMARK INTER:                 -13.173
REMARK INTRA:                  -1.018
REMARK CONF_INDEPENDENT:        2.088
REMARK UNBOUND:                -1.018
REMARK SMILES Cc1cn(-c2cc(NC(=O)c3ccc(C)c(Nc4nccc(-c5cccnc5)n4)c3)cc(C(F)(F)F)c2)cn1
REMARK SMILES IDX 11 1 12 2 13 3 14 4 15 5 16 6 30 7 9 8 10 9 8 10 7 12 6 13
REMARK SMILES IDX 31 14 5 15 32 16 37 17 4 18 3 19 38 20 2 21 39 22 1 23 33 24
REMARK SMILES IDX 34 25 35 26 36 27 17 28 18 30 19 31 29 32 20 33 22 34 21 35
REMARK SMILES IDX 23 36 24 37 28 38 25 39 27 40 26 41
REMARK H PARENT 8 11 17 29
ROOT
ATOM      1  C   UNL     1      33.919  -0.682  50.890  1.00  0.00     0.042 A 
ATOM      2  C   UNL     1      33.942  -1.907  50.207  1.00  0.00     0.014 A 
ATOM      3  C   UNL     1      34.929  -2.194  49.262  1.00  0.00     0.006 A 
ATOM      4  C   UNL     1      35.875  -1.249  48.902  1.00  0.00    -0.027 A 
ATOM      5  C   UNL     1      36.941  -1.573  47.865  1.00  0.00     0.046 C 
ATOM      6  C   UNL     1      35.795   0.007  49.502  1.00  0.00     0.045 A 
ATOM      7  C   UNL     1      34.812   0.267  50.466  1.00  0.00     0.040 A 
ENDROOT
BRANCH   1   8
ATOM      8  C   UNL     1      32.846  -0.247  51.806  1.00  0.00     0.255 C 
ATOM      9  O   UNL     1      33.106   0.712  52.491  1.00  0.00    -0.269 OA
ATOM     10  N   UNL     1      31.637  -0.791  51.601  1.00  0.00    -0.322 N 
ATOM     11  H   UNL     1      31.567  -1.513  50.870  1.00  0.00     0.170 HD
BRANCH  10  12
ATOM     12  C   UNL     1      30.471  -0.469  52.284  1.00  0.00     0.044 A 
ATOM     13  C   UNL     1      29.697   0.658  51.911  1.00  0.00     0.052 A 
ATOM     14  C   UNL     1      30.095  -1.186  53.441  1.00  0.00     0.039 A 
ATOM     15  C   UNL     1      28.517   0.984  52.586  1.00  0.00     0.049 A 
ATOM     16  C   UNL     1      28.882  -0.866  54.114  1.00  0.00     0.060 A 
ATOM     17  C   UNL     1      28.132   0.235  53.694  1.00  0.00     0.039 A 
BRANCH  15  18
ATOM     18  N   UNL     1      27.721   2.072  52.198  1.00  0.00    -0.306 N 
ATOM     19  C   UNL     1      26.784   2.783  52.946  1.00  0.00     0.116 A 
ATOM     20  C   UNL     1      27.634   2.604  50.973  1.00  0.00     0.204 A 
ATOM     21  C   UNL     1      26.199   3.692  52.136  1.00  0.00     0.056 A 
ATOM     22  N   UNL     1      26.768   3.586  50.914  1.00  0.00    -0.242 NA
ATOM     23  C   UNL     1      25.138   4.705  52.490  1.00  0.00     0.068 C 
ENDBRANCH  15  18
BRANCH  16  24
ATOM     24  C   UNL     1      28.478  -1.680  55.300  1.00  0.00     0.416 C 
ATOM     25  F   UNL     1      27.558  -2.633  55.051  1.00  0.00    -0.166 F 
ATOM     26  F   UNL     1      29.499  -2.396  55.757  1.00  0.00    -0.166 F 
ATOM     27  F   UNL     1      27.901  -0.932  56.263  1.00  0.00    -0.166 F 
ENDBRANCH  16  24
ENDBRANCH  10  12
ENDBRANCH   1   8
BRANCH   6  28
ATOM     28  N   UNL     1      36.832   0.921  49.277  1.00  0.00    -0.324 N 
ATOM     29  H   UNL     1      36.619   1.895  49.019  1.00  0.00     0.170 HD
BRANCH  28  30
ATOM     30  C   UNL     1      38.158   0.501  49.407  1.00  0.00     0.227 A 
ATOM     31  N   UNL     1      38.733  -0.137  50.418  1.00  0.00    -0.221 NA
ATOM     32  N   UNL     1      38.836   0.934  48.313  1.00  0.00    -0.213 NA
ATOM     33  C   UNL     1      40.052  -0.387  50.304  1.00  0.00     0.117 A 
ATOM     34  C   UNL     1      40.150   0.691  48.260  1.00  0.00     0.077 A 
ATOM     35  C   UNL     1      40.779   0.029  49.255  1.00  0.00     0.049 A 
BRANCH  34  36
ATOM     36  C   UNL     1      40.840   1.154  47.027  1.00  0.00     0.019 A 
ATOM     37  C   UNL     1      40.731   2.480  46.578  1.00  0.00     0.013 A 
ATOM     38  C   UNL     1      41.616   0.261  46.263  1.00  0.00     0.121 A 
ATOM     39  C   UNL     1      41.377   2.850  45.405  1.00  0.00     0.021 A 
ATOM     40  N   UNL     1      42.234   0.609  45.128  1.00  0.00    -0.264 NA
ATOM     41  C   UNL     1      42.134   1.890  44.735  1.00  0.00     0.111 A 
ENDBRANCH  34  36
ENDBRANCH  28  30
ENDBRANCH   6  28
TORSDOF 7
ENDMDL
MODEL 8
REMARK VINA RESULT:   -11.067      2.818      4.598
REMARK INTER + INTRA:         -14.359
REMARK INTER:                 -13.156
REMARK INTRA:                  -1.204
REMARK CONF_INDEPENDENT:        2.088
REMARK UNBOUND:                -1.204
REMARK SMILES Cc1cn(-c2cc(NC(=O)c3ccc(C)c(Nc4nccc(-c5cccnc5)n4)c3)cc(C(F)(F)F)c2)cn1
REMARK SMILES IDX 11 1 12 2 13 3 14 4 15 5 16 6 30 7 9 8 10 9 8 10 7 12 6 13
REMARK SMILES IDX 31 14 5 15 32 16 37 17 4 18 3 19 38 20 2 21 39 22 1 23 33 24
REMARK SMILES IDX 34 25 35 26 36 27 17 28 18 30 19 31 29 32 20 33 22 34 21 35
REMARK SMILES IDX 23 36 24 37 28 38 25 39 27 40 26 41
REMARK H PARENT 8 11 17 29
ROOT
ATOM      1  C   UNL     1      29.645   1.353  52.232  1.00  0.00     0.042 A 
ATOM      2  C   UNL     1      30.150   1.222  53.534  1.00  0.00     0.014 A 
ATOM      3  C   UNL     1      31.483   0.879  53.766  1.00  0.00     0.006 A 
ATOM      4  C   UNL     1      32.338   0.573  52.721  1.00  0.00    -0.027 A 
ATOM      5  C   UNL     1      33.788   0.193  52.989  1.00  0.00     0.046 C 
ATOM      6  C   UNL     1      31.815   0.600  51.429  1.00  0.00     0.045 A 
ATOM      7  C   UNL     1      30.482   0.971  51.215  1.00  0.00     0.040 A 
ENDROOT
BRANCH   1   8
ATOM      8  C   UNL     1      28.227   1.586  51.896  1.00  0.00     0.255 C 
ATOM      9  O   UNL     1      27.603   0.605  51.571  1.00  0.00    -0.269 OA
ATOM     10  N   UNL     1      27.730   2.787  52.227  1.00  0.00    -0.322 N 
ATOM     11  H   UNL     1      28.389   3.472  52.624  1.00  0.00     0.170 HD
BRANCH  10  12
ATOM     12  C   UNL     1      26.409   3.192  52.081  1.00  0.00     0.044 A 
ATOM     13  C   UNL     1      25.663   2.840  50.929  1.00  0.00     0.052 A 
ATOM     14  C   UNL     1      25.819   4.065  53.021  1.00  0.00     0.039 A 
ATOM     15  C   UNL     1      24.331   3.234  50.779  1.00  0.00     0.049 A 
ATOM     16  C   UNL     1      24.454   4.448  52.876  1.00  0.00     0.060 A 
ATOM     17  C   UNL     1      23.746   4.053  51.740  1.00  0.00     0.039 A 
BRANCH  15  18
ATOM     18  N   UNL     1      23.571   2.855  49.662  1.00  0.00    -0.306 N 
ATOM     19  C   UNL     1      22.885   1.664  49.433  1.00  0.00     0.116 A 
ATOM     20  C   UNL     1      23.422   3.542  48.523  1.00  0.00     0.204 A 
ATOM     21  C   UNL     1      22.366   1.708  48.187  1.00  0.00     0.056 A 
ATOM     22  N   UNL     1      22.686   2.905  47.646  1.00  0.00    -0.242 NA
ATOM     23  C   UNL     1      21.527   0.663  47.492  1.00  0.00     0.068 C 
ENDBRANCH  15  18
BRANCH  16  24
ATOM     24  C   UNL     1      23.837   5.324  53.918  1.00  0.00     0.416 C 
ATOM     25  F   UNL     1      24.613   5.565  54.993  1.00  0.00    -0.166 F 
ATOM     26  F   UNL     1      23.629   6.549  53.449  1.00  0.00    -0.166 F 
ATOM     27  F   UNL     1      22.723   4.781  54.451  1.00  0.00    -0.166 F 
ENDBRANCH  16  24
ENDBRANCH  10  12
ENDBRANCH   1   8
BRANCH   6  28
ATOM     28  N   UNL     1      32.696   0.454  50.350  1.00  0.00    -0.324 N 
ATOM     29  H   UNL     1      32.964   1.272  49.784  1.00  0.00     0.170 HD
BRANCH  28  30
ATOM     30  C   UNL     1      33.209  -0.809  50.047  1.00  0.00     0.227 A 
ATOM     31  N   UNL     1      32.592  -1.984  50.067  1.00  0.00    -0.221 NA
ATOM     32  N   UNL     1      34.533  -0.664  49.786  1.00  0.00    -0.213 NA
ATOM     33  C   UNL     1      33.339  -3.065  49.770  1.00  0.00     0.117 A 
ATOM     34  C   UNL     1      35.241  -1.770  49.528  1.00  0.00     0.077 A 
ATOM     35  C   UNL     1      34.655  -2.987  49.519  1.00  0.00     0.049 A 
BRANCH  34  36
ATOM     36  C   UNL     1      36.678  -1.555  49.215  1.00  0.00     0.019 A 
ATOM     37  C   UNL     1      37.400  -2.459  48.418  1.00  0.00     0.013 A 
ATOM     38  C   UNL     1      37.362  -0.436  49.727  1.00  0.00     0.121 A 
ATOM     39  C   UNL     1      38.747  -2.220  48.179  1.00  0.00     0.021 A 
ATOM     40  N   UNL     1      38.662  -0.204  49.507  1.00  0.00    -0.264 NA
ATOM     41  C   UNL     1      39.322  -1.070  48.721  1.00  0.00     0.111 A 
ENDBRANCH  34  36
ENDBRANCH  28  30
ENDBRANCH   6  28
TORSDOF 7
ENDMDL
MODEL 9
REMARK VINA RESULT:   -10.933      3.335      5.359
REMARK INTER + INTRA:         -14.094
REMARK INTER:                 -13.022
REMARK INTRA:                  -1.072
REMARK CONF_INDEPENDENT:        2.088
REMARK UNBOUND:                -1.072
REMARK SMILES Cc1cn(-c2cc(NC(=O)c3ccc(C)c(Nc4nccc(-c5cccnc5)n4)c3)cc(C(F)(F)F)c2)cn1
REMARK SMILES IDX 11 1 12 2 13 3 14 4 15 5 16 6 30 7 9 8 10 9 8 10 7 12 6 13
REMARK SMILES IDX 31 14 5 15 32 16 37 17 4 18 3 19 38 20 2 21 39 22 1 23 33 24
REMARK SMILES IDX 34 25 35 26 36 27 17 28 18 30 19 31 29 32 20 33 22 34 21 35
REMARK SMILES IDX 23 36 24 37 28 38 25 39 27 40 26 41
REMARK H PARENT 8 11 17 29
ROOT
ATOM      1  C   UNL     1      27.598   1.969  52.451  1.00  0.00     0.042 A 
ATOM      2  C   UNL     1      27.855   0.805  51.710  1.00  0.00     0.014 A 
ATOM      3  C   UNL     1      28.824  -0.115  52.114  1.00  0.00     0.006 A 
ATOM      4  C   UNL     1      29.627   0.126  53.217  1.00  0.00    -0.027 A 
ATOM      5  C   UNL     1      30.685  -0.882  53.642  1.00  0.00     0.046 C 
ATOM      6  C   UNL     1      29.447   1.329  53.897  1.00  0.00     0.045 A 
ATOM      7  C   UNL     1      28.452   2.228  53.491  1.00  0.00     0.040 A 
ENDROOT
BRANCH   1   8
ATOM      8  C   UNL     1      26.686   3.051  52.031  1.00  0.00     0.255 C 
ATOM      9  O   UNL     1      26.599   3.223  50.840  1.00  0.00    -0.269 OA
ATOM     10  N   UNL     1      25.878   3.546  52.981  1.00  0.00    -0.322 N 
ATOM     11  H   UNL     1      26.002   3.182  53.936  1.00  0.00     0.170 HD
BRANCH  10  12
ATOM     12  C   UNL     1      24.890   4.504  52.794  1.00  0.00     0.044 A 
ATOM     13  C   UNL     1      24.129   4.987  53.888  1.00  0.00     0.052 A 
ATOM     14  C   UNL     1      24.541   4.931  51.494  1.00  0.00     0.039 A 
ATOM     15  C   UNL     1      23.140   5.958  53.711  1.00  0.00     0.049 A 
ATOM     16  C   UNL     1      23.548   5.937  51.319  1.00  0.00     0.060 A 
ATOM     17  C   UNL     1      22.842   6.407  52.428  1.00  0.00     0.039 A 
BRANCH  15  18
ATOM     18  N   UNL     1      22.410   6.473  54.793  1.00  0.00    -0.306 N 
ATOM     19  C   UNL     1      22.770   6.547  56.137  1.00  0.00     0.116 A 
ATOM     20  C   UNL     1      21.150   6.925  54.766  1.00  0.00     0.204 A 
ATOM     21  C   UNL     1      21.720   7.039  56.829  1.00  0.00     0.056 A 
ATOM     22  N   UNL     1      20.728   7.300  55.949  1.00  0.00    -0.242 NA
ATOM     23  C   UNL     1      21.633   7.319  58.310  1.00  0.00     0.068 C 
ENDBRANCH  15  18
BRANCH  16  24
ATOM     24  C   UNL     1      23.240   6.413  49.936  1.00  0.00     0.416 C 
ATOM     25  F   UNL     1      24.298   6.466  49.103  1.00  0.00    -0.166 F 
ATOM     26  F   UNL     1      22.437   5.563  49.307  1.00  0.00    -0.166 F 
ATOM     27  F   UNL     1      22.766   7.676  49.922  1.00  0.00    -0.166 F 
ENDBRANCH  16  24
ENDBRANCH  10  12
ENDBRANCH   1   8
BRANCH   6  28
ATOM     28  N   UNL     1      30.131   1.522  55.105  1.00  0.00    -0.324 N 
ATOM     29  H   UNL     1      29.843   1.011  55.951  1.00  0.00     0.170 HD
BRANCH  28  30
ATOM     30  C   UNL     1      31.205   2.412  55.151  1.00  0.00     0.227 A 
ATOM     31  N   UNL     1      32.074   2.718  54.196  1.00  0.00    -0.221 NA
ATOM     32  N   UNL     1      31.287   2.894  56.418  1.00  0.00    -0.213 NA
ATOM     33  C   UNL     1      33.052   3.584  54.523  1.00  0.00     0.117 A 
ATOM     34  C   UNL     1      32.294   3.726  56.703  1.00  0.00     0.077 A 
ATOM     35  C   UNL     1      33.194   4.083  55.761  1.00  0.00     0.049 A 
BRANCH  34  36
ATOM     36  C   UNL     1      32.319   4.253  58.093  1.00  0.00     0.019 A 
ATOM     37  C   UNL     1      31.906   5.562  58.391  1.00  0.00     0.013 A 
ATOM     38  C   UNL     1      32.775   3.448  59.155  1.00  0.00     0.121 A 
ATOM     39  C   UNL     1      31.975   6.009  59.704  1.00  0.00     0.021 A 
ATOM     40  N   UNL     1      32.850   3.876  60.422  1.00  0.00    -0.264 NA
ATOM     41  C   UNL     1      32.426   5.123  60.682  1.00  0.00     0.111 A 
ENDBRANCH  34  36
ENDBRANCH  28  30
ENDBRANCH   6  28
TORSDOF 7
ENDMDL
MODEL 10
REMARK VINA RESULT:   -10.885      8.420     15.250
REMARK INTER + INTRA:         -14.290
REMARK INTER:                 -12.973
REMARK INTRA:                  -1.317
REMARK CONF_INDEPENDENT:        2.088
REMARK UNBOUND:                -1.317
REMARK SMILES Cc1cn(-c2cc(NC(=O)c3ccc(C)c(Nc4nccc(-c5cccnc5)n4)c3)cc(C(F)(F)F)c2)cn1
REMARK SMILES IDX 11 1 12 2 13 3 14 4 15 5 16 6 30 7 9 8 10 9 8 10 7 12 6 13
REMARK SMILES IDX 31 14 5 15 32 16 37 17 4 18 3 19 38 20 2 21 39 22 1 23 33 24
REMARK SMILES IDX 34 25 35 26 36 27 17 28 18 30 19 31 29 32 20 33 22 34 21 35
REMARK SMILES IDX 23 36 24 37 28 38 25 39 27 40 26 41
REMARK H PARENT 8 11 17 29
ROOT
ATOM      1  C   UNL     1      35.970  -1.644  49.259  1.00  0.00     0.042 A 
ATOM      2  C   UNL     1      35.196  -2.809  49.146  1.00  0.00     0.014 A 
ATOM      3  C   UNL     1      33.823  -2.796  49.394  1.00  0.00     0.006 A 
ATOM      4  C   UNL     1      33.184  -1.650  49.842  1.00  0.00    -0.027 A 
ATOM      5  C   UNL     1      31.687  -1.653  50.116  1.00  0.00     0.046 C 
ATOM      6  C   UNL     1      33.967  -0.517  50.056  1.00  0.00     0.045 A 
ATOM      7  C   UNL     1      35.339  -0.543  49.777  1.00  0.00     0.040 A 
ENDROOT
BRANCH   1   8
ATOM      8  C   UNL     1      37.441  -1.594  49.140  1.00  0.00     0.255 C 
ATOM      9  O   UNL     1      38.022  -1.125  50.088  1.00  0.00    -0.269 OA
ATOM     10  N   UNL     1      37.977  -2.291  48.127  1.00  0.00    -0.322 N 
ATOM     11  H   UNL     1      37.322  -2.749  47.477  1.00  0.00     0.170 HD
BRANCH  10  12
ATOM     12  C   UNL     1      39.333  -2.452  47.875  1.00  0.00     0.044 A 
ATOM     13  C   UNL     1      39.900  -2.028  46.648  1.00  0.00     0.052 A 
ATOM     14  C   UNL     1      40.154  -3.152  48.786  1.00  0.00     0.039 A 
ATOM     15  C   UNL     1      41.265  -2.177  46.389  1.00  0.00     0.049 A 
ATOM     16  C   UNL     1      41.549  -3.283  48.530  1.00  0.00     0.060 A 
ATOM     17  C   UNL     1      42.073  -2.822  47.320  1.00  0.00     0.039 A 
BRANCH  15  18
ATOM     18  N   UNL     1      41.844  -1.721  45.195  1.00  0.00    -0.306 N 
ATOM     19  C   UNL     1      42.156  -0.418  44.814  1.00  0.00     0.116 A 
ATOM     20  C   UNL     1      42.138  -2.457  44.115  1.00  0.00     0.204 A 
ATOM     21  C   UNL     1      42.617  -0.447  43.544  1.00  0.00     0.056 A 
ATOM     22  N   UNL     1      42.629  -1.736  43.137  1.00  0.00    -0.242 NA
ATOM     23  C   UNL     1      43.099   0.710  42.704  1.00  0.00     0.068 C 
ENDBRANCH  15  18
BRANCH  16  24
ATOM     24  C   UNL     1      42.406  -3.975  49.540  1.00  0.00     0.416 C 
ATOM     25  F   UNL     1      42.709  -3.241  50.629  1.00  0.00    -0.166 F 
ATOM     26  F   UNL     1      41.771  -5.011  50.074  1.00  0.00    -0.166 F 
ATOM     27  F   UNL     1      43.614  -4.312  49.043  1.00  0.00    -0.166 F 
ENDBRANCH  16  24
ENDBRANCH  10  12
ENDBRANCH   1   8
BRANCH   6  28
ATOM     28  N   UNL     1      33.323   0.692  50.351  1.00  0.00    -0.324 N 
ATOM     29  H   UNL     1      32.973   1.293  49.591  1.00  0.00     0.170 HD
BRANCH  28  30
ATOM     30  C   UNL     1      33.159   1.075  51.683  1.00  0.00     0.227 A 
ATOM     31  N   UNL     1      33.874   1.936  52.396  1.00  0.00    -0.221 NA
ATOM     32  N   UNL     1      32.144   0.337  52.202  1.00  0.00    -0.213 NA
ATOM     33  C   UNL     1      33.525   2.091  53.687  1.00  0.00     0.117 A 
ATOM     34  C   UNL     1      31.854   0.503  53.498  1.00  0.00     0.077 A 
ATOM     35  C   UNL     1      32.542   1.380  54.261  1.00  0.00     0.049 A 
BRANCH  34  36
ATOM     36  C   UNL     1      30.714  -0.302  54.009  1.00  0.00     0.019 A 
ATOM     37  C   UNL     1      29.651   0.292  54.709  1.00  0.00     0.013 A 
ATOM     38  C   UNL     1      30.678  -1.696  53.815  1.00  0.00     0.121 A 
ATOM     39  C   UNL     1      28.624  -0.513  55.185  1.00  0.00     0.021 A 
ATOM     40  N   UNL     1      29.694  -2.478  54.278  1.00  0.00    -0.264 NA
ATOM     41  C   UNL     1      28.678  -1.882  54.922  1.00  0.00     0.111 A 
ENDBRANCH  34  36
ENDBRANCH  28  30
ENDBRANCH   6  28
TORSDOF 7
ENDMDL
MODEL 11
REMARK VINA RESULT:   -10.822      4.584     13.472
REMARK INTER + INTRA:         -14.220
REMARK INTER:                 -12.910
REMARK INTRA:                  -1.310
REMARK CONF_INDEPENDENT:        2.088
REMARK UNBOUND:                -1.310
REMARK SMILES Cc1cn(-c2cc(NC(=O)c3ccc(C)c(Nc4nccc(-c5cccnc5)n4)c3)cc(C(F)(F)F)c2)cn1
REMARK SMILES IDX 11 1 12 2 13 3 14 4 15 5 16 6 30 7 9 8 10 9 8 10 7 12 6 13
REMARK SMILES IDX 31 14 5 15 32 16 37 17 4 18 3 19 38 20 2 21 39 22 1 23 33 24
REMARK SMILES IDX 34 25 35 26 36 27 17 28 18 30 19 31 29 32 20 33 22 34 21 35
REMARK SMILES IDX 23 36 24 37 28 38 25 39 27 40 26 41
REMARK H PARENT 8 11 17 29
ROOT
ATOM      1  C   UNL     1      21.148   7.175  54.269  1.00  0.00     0.042 A 
ATOM      2  C   UNL     1      20.977   7.342  55.652  1.00  0.00     0.014 A 
ATOM      3  C   UNL     1      20.259   8.420  56.170  1.00  0.00     0.006 A 
ATOM      4  C   UNL     1      19.757   9.413  55.344  1.00  0.00    -0.027 A 
ATOM      5  C   UNL     1      18.982  10.588  55.924  1.00  0.00     0.046 C 
ATOM      6  C   UNL     1      20.013   9.307  53.978  1.00  0.00     0.045 A 
ATOM      7  C   UNL     1      20.714   8.204  53.475  1.00  0.00     0.040 A 
ENDROOT
BRANCH   1   8
ATOM      8  C   UNL     1      21.995   6.141  53.643  1.00  0.00     0.255 C 
ATOM      9  O   UNL     1      21.885   5.031  54.105  1.00  0.00    -0.269 OA
ATOM     10  N   UNL     1      22.591   6.482  52.491  1.00  0.00    -0.322 N 
ATOM     11  H   UNL     1      22.466   7.452  52.169  1.00  0.00     0.170 HD
BRANCH  10  12
ATOM     12  C   UNL     1      23.361   5.646  51.691  1.00  0.00     0.044 A 
ATOM     13  C   UNL     1      24.483   4.964  52.222  1.00  0.00     0.052 A 
ATOM     14  C   UNL     1      23.114   5.552  50.304  1.00  0.00     0.039 A 
ATOM     15  C   UNL     1      25.258   4.113  51.429  1.00  0.00     0.049 A 
ATOM     16  C   UNL     1      23.890   4.668  49.502  1.00  0.00     0.060 A 
ATOM     17  C   UNL     1      24.970   3.991  50.073  1.00  0.00     0.039 A 
BRANCH  15  18
ATOM     18  N   UNL     1      26.346   3.401  51.955  1.00  0.00    -0.306 N 
ATOM     19  C   UNL     1      26.714   3.222  53.287  1.00  0.00     0.116 A 
ATOM     20  C   UNL     1      27.327   2.810  51.262  1.00  0.00     0.204 A 
ATOM     21  C   UNL     1      27.879   2.538  53.315  1.00  0.00     0.056 A 
ATOM     22  N   UNL     1      28.228   2.261  52.039  1.00  0.00    -0.242 NA
ATOM     23  C   UNL     1      28.663   2.088  54.524  1.00  0.00     0.068 C 
ENDBRANCH  15  18
BRANCH  16  24
ATOM     24  C   UNL     1      23.568   4.542  48.048  1.00  0.00     0.416 C 
ATOM     25  F   UNL     1      23.477   3.277  47.592  1.00  0.00    -0.166 F 
ATOM     26  F   UNL     1      22.357   5.017  47.785  1.00  0.00    -0.166 F 
ATOM     27  F   UNL     1      24.519   5.091  47.263  1.00  0.00    -0.166 F 
ENDBRANCH  16  24
ENDBRANCH  10  12
ENDBRANCH   1   8
BRANCH   6  28
ATOM     28  N   UNL     1      19.381  10.206  53.109  1.00  0.00    -0.324 N 
ATOM     29  H   UNL     1      19.935  10.757  52.438  1.00  0.00     0.170 HD
BRANCH  28  30
ATOM     30  C   UNL     1      17.993  10.350  53.161  1.00  0.00     0.227 A 
ATOM     31  N   UNL     1      17.268  11.461  53.109  1.00  0.00    -0.221 NA
ATOM     32  N   UNL     1      17.458   9.118  53.361  1.00  0.00    -0.213 NA
ATOM     33  C   UNL     1      15.934  11.320  53.226  1.00  0.00     0.117 A 
ATOM     34  C   UNL     1      16.130   9.032  53.503  1.00  0.00     0.077 A 
ATOM     35  C   UNL     1      15.349  10.131  53.440  1.00  0.00     0.049 A 
BRANCH  34  36
ATOM     36  C   UNL     1      15.592   7.659  53.684  1.00  0.00     0.019 A 
ATOM     37  C   UNL     1      14.777   7.327  54.779  1.00  0.00     0.013 A 
ATOM     38  C   UNL     1      15.901   6.641  52.761  1.00  0.00     0.121 A 
ATOM     39  C   UNL     1      14.323   6.020  54.911  1.00  0.00     0.021 A 
ATOM     40  N   UNL     1      15.472   5.379  52.886  1.00  0.00    -0.264 NA
ATOM     41  C   UNL     1      14.674   5.095  53.929  1.00  0.00     0.111 A 
ENDBRANCH  34  36
ENDBRANCH  28  30
ENDBRANCH   6  28
TORSDOF 7
ENDMDL
MODEL 12
REMARK VINA RESULT:   -10.575      8.274     14.989
REMARK INTER + INTRA:         -14.020
REMARK INTER:                 -12.663
REMARK INTRA:                  -1.358
REMARK CONF_INDEPENDENT:        2.088
REMARK UNBOUND:                -1.358
REMARK SMILES Cc1cn(-c2cc(NC(=O)c3ccc(C)c(Nc4nccc(-c5cccnc5)n4)c3)cc(C(F)(F)F)c2)cn1
REMARK SMILES IDX 11 1 12 2 13 3 14 4 15 5 16 6 30 7 9 8 10 9 8 10 7 12 6 13
REMARK SMILES IDX 31 14 5 15 32 16 37 17 4 18 3 19 38 20 2 21 39 22 1 23 33 24
REMARK SMILES IDX 34 25 35 26 36 27 17 28 18 30 19 31 29 32 20 33 22 34 21 35
REMARK SMILES IDX 23 36 24 37 28 38 25 39 27 40 26 41
REMARK H PARENT 8 11 17 29
ROOT
ATOM      1  C   UNL     1      36.212  -1.557  49.496  1.00  0.00     0.042 A 
ATOM      2  C   UNL     1      35.534  -2.765  49.276  1.00  0.00     0.014 A 
ATOM      3  C   UNL     1      34.145  -2.849  49.386  1.00  0.00     0.006 A 
ATOM      4  C   UNL     1      33.390  -1.762  49.798  1.00  0.00    -0.027 A 
ATOM      5  C   UNL     1      31.876  -1.871  49.921  1.00  0.00     0.046 C 
ATOM      6  C   UNL     1      34.069  -0.588  50.118  1.00  0.00     0.045 A 
ATOM      7  C   UNL     1      35.460  -0.517  49.978  1.00  0.00     0.040 A 
ENDROOT
BRANCH   1   8
ATOM      8  C   UNL     1      37.680  -1.407  49.526  1.00  0.00     0.255 C 
ATOM      9  O   UNL     1      38.096  -0.508  50.215  1.00  0.00    -0.269 OA
ATOM     10  N   UNL     1      38.389  -2.420  49.003  1.00  0.00    -0.322 N 
ATOM     11  H   UNL     1      37.857  -3.185  48.565  1.00  0.00     0.170 HD
BRANCH  10  12
ATOM     12  C   UNL     1      39.774  -2.530  48.999  1.00  0.00     0.044 A 
ATOM     13  C   UNL     1      40.508  -2.523  50.211  1.00  0.00     0.052 A 
ATOM     14  C   UNL     1      40.490  -2.528  47.782  1.00  0.00     0.039 A 
ATOM     15  C   UNL     1      41.900  -2.644  50.217  1.00  0.00     0.049 A 
ATOM     16  C   UNL     1      41.907  -2.673  47.790  1.00  0.00     0.060 A 
ATOM     17  C   UNL     1      42.589  -2.694  49.009  1.00  0.00     0.039 A 
BRANCH  15  18
ATOM     18  N   UNL     1      42.632  -2.681  51.413  1.00  0.00    -0.306 N 
ATOM     19  C   UNL     1      42.643  -3.662  52.403  1.00  0.00     0.116 A 
ATOM     20  C   UNL     1      43.420  -1.715  51.900  1.00  0.00     0.204 A 
ATOM     21  C   UNL     1      43.431  -3.233  53.413  1.00  0.00     0.056 A 
ATOM     22  N   UNL     1      43.934  -2.028  53.065  1.00  0.00    -0.242 NA
ATOM     23  C   UNL     1      43.769  -3.953  54.696  1.00  0.00     0.068 C 
ENDBRANCH  15  18
BRANCH  16  24
ATOM     24  C   UNL     1      42.634  -2.730  46.486  1.00  0.00     0.416 C 
ATOM     25  F   UNL     1      42.818  -3.969  45.989  1.00  0.00    -0.166 F 
ATOM     26  F   UNL     1      41.930  -2.149  45.522  1.00  0.00    -0.166 F 
ATOM     27  F   UNL     1      43.887  -2.239  46.576  1.00  0.00    -0.166 F 
ENDBRANCH  16  24
ENDBRANCH  10  12
ENDBRANCH   1   8
BRANCH   6  28
ATOM     28  N   UNL     1      33.318   0.566  50.379  1.00  0.00    -0.324 N 
ATOM     29  H   UNL     1      32.912   1.107  49.603  1.00  0.00     0.170 HD
BRANCH  28  30
ATOM     30  C   UNL     1      33.126   0.977  51.699  1.00  0.00     0.227 A 
ATOM     31  N   UNL     1      33.807   1.875  52.400  1.00  0.00    -0.221 NA
ATOM     32  N   UNL     1      32.126   0.223  52.224  1.00  0.00    -0.213 NA
ATOM     33  C   UNL     1      33.437   2.050  53.682  1.00  0.00     0.117 A 
ATOM     34  C   UNL     1      31.815   0.411  53.511  1.00  0.00     0.077 A 
ATOM     35  C   UNL     1      32.467   1.325  54.261  1.00  0.00     0.049 A 
BRANCH  34  36
ATOM     36  C   UNL     1      30.691  -0.413  54.028  1.00  0.00     0.019 A 
ATOM     37  C   UNL     1      29.592   0.168  54.681  1.00  0.00     0.013 A 
ATOM     38  C   UNL     1      30.707  -1.815  53.886  1.00  0.00     0.121 A 
ATOM     39  C   UNL     1      28.583  -0.654  55.165  1.00  0.00     0.021 A 
ATOM     40  N   UNL     1      29.741  -2.613  54.357  1.00  0.00    -0.264 NA
ATOM     41  C   UNL     1      28.690  -2.028  54.955  1.00  0.00     0.111 A 
ENDBRANCH  34  36
ENDBRANCH  28  30
ENDBRANCH   6  28
TORSDOF 7
ENDMDL
MODEL 13
REMARK VINA RESULT:   -10.572      5.717     10.818
REMARK INTER + INTRA:         -13.799
REMARK INTER:                 -12.660
REMARK INTRA:                  -1.139
REMARK CONF_INDEPENDENT:        2.088
REMARK UNBOUND:                -1.139
REMARK SMILES Cc1cn(-c2cc(NC(=O)c3ccc(C)c(Nc4nccc(-c5cccnc5)n4)c3)cc(C(F)(F)F)c2)cn1
REMARK SMILES IDX 11 1 12 2 13 3 14 4 15 5 16 6 30 7 9 8 10 9 8 10 7 12 6 13
REMARK SMILES IDX 31 14 5 15 32 16 37 17 4 18 3 19 38 20 2 21 39 22 1 23 33 24
REMARK SMILES IDX 34 25 35 26 36 27 17 28 18 30 19 31 29 32 20 33 22 34 21 35
REMARK SMILES IDX 23 36 24 37 28 38 25 39 27 40 26 41
REMARK H PARENT 8 11 17 29
ROOT
ATOM      1  C   UNL     1      22.304   6.480  55.207  1.00  0.00     0.042 A 
ATOM      2  C   UNL     1      21.548   7.609  54.857  1.00  0.00     0.014 A 
ATOM      3  C   UNL     1      21.090   8.505  55.824  1.00  0.00     0.006 A 
ATOM      4  C   UNL     1      21.292   8.270  57.174  1.00  0.00    -0.027 A 
ATOM      5  C   UNL     1      20.779   9.252  58.218  1.00  0.00     0.046 C 
ATOM      6  C   UNL     1      21.952   7.096  57.534  1.00  0.00     0.045 A 
ATOM      7  C   UNL     1      22.427   6.223  56.548  1.00  0.00     0.040 A 
ENDROOT
BRANCH   1   8
ATOM      8  C   UNL     1      22.719   5.418  54.268  1.00  0.00     0.255 C 
ATOM      9  O   UNL     1      21.820   4.773  53.786  1.00  0.00    -0.269 OA
ATOM     10  N   UNL     1      23.998   5.451  53.866  1.00  0.00    -0.322 N 
ATOM     11  H   UNL     1      24.603   6.168  54.290  1.00  0.00     0.170 HD
BRANCH  10  12
ATOM     12  C   UNL     1      24.580   4.607  52.929  1.00  0.00     0.044 A 
ATOM     13  C   UNL     1      23.847   4.152  51.805  1.00  0.00     0.052 A 
ATOM     14  C   UNL     1      25.876   4.087  53.138  1.00  0.00     0.039 A 
ATOM     15  C   UNL     1      24.427   3.310  50.852  1.00  0.00     0.049 A 
ATOM     16  C   UNL     1      26.473   3.248  52.155  1.00  0.00     0.060 A 
ATOM     17  C   UNL     1      25.725   2.848  51.046  1.00  0.00     0.039 A 
BRANCH  15  18
ATOM     18  N   UNL     1      23.723   2.888  49.714  1.00  0.00    -0.306 N 
ATOM     19  C   UNL     1      22.897   1.777  49.558  1.00  0.00     0.116 A 
ATOM     20  C   UNL     1      23.777   3.430  48.492  1.00  0.00     0.204 A 
ATOM     21  C   UNL     1      22.504   1.721  48.267  1.00  0.00     0.056 A 
ATOM     22  N   UNL     1      23.038   2.783  47.624  1.00  0.00    -0.242 NA
ATOM     23  C   UNL     1      21.589   0.711  47.617  1.00  0.00     0.068 C 
ENDBRANCH  15  18
BRANCH  16  24
ATOM     24  C   UNL     1      27.869   2.761  52.373  1.00  0.00     0.416 C 
ATOM     25  F   UNL     1      28.032   1.428  52.256  1.00  0.00    -0.166 F 
ATOM     26  F   UNL     1      28.688   3.222  51.435  1.00  0.00    -0.166 F 
ATOM     27  F   UNL     1      28.314   3.022  53.620  1.00  0.00    -0.166 F 
ENDBRANCH  16  24
ENDBRANCH  10  12
ENDBRANCH   1   8
BRANCH   6  28
ATOM     28  N   UNL     1      22.311   6.918  58.877  1.00  0.00    -0.324 N 
ATOM     29  H   UNL     1      21.796   6.249  59.467  1.00  0.00     0.170 HD
BRANCH  28  30
ATOM     30  C   UNL     1      23.372   7.654  59.408  1.00  0.00     0.227 A 
ATOM     31  N   UNL     1      23.633   8.949  59.280  1.00  0.00    -0.221 NA
ATOM     32  N   UNL     1      24.193   6.786  60.053  1.00  0.00    -0.213 NA
ATOM     33  C   UNL     1      24.759   9.399  59.865  1.00  0.00     0.117 A 
ATOM     34  C   UNL     1      25.316   7.275  60.590  1.00  0.00     0.077 A 
ATOM     35  C   UNL     1      25.618   8.588  60.503  1.00  0.00     0.049 A 
BRANCH  34  36
ATOM     36  C   UNL     1      26.163   6.292  61.315  1.00  0.00     0.019 A 
ATOM     37  C   UNL     1      26.402   6.401  62.694  1.00  0.00     0.013 A 
ATOM     38  C   UNL     1      26.766   5.222  60.625  1.00  0.00     0.121 A 
ATOM     39  C   UNL     1      27.222   5.467  63.314  1.00  0.00     0.021 A 
ATOM     40  N   UNL     1      27.564   4.323  61.216  1.00  0.00    -0.264 NA
ATOM     41  C   UNL     1      27.755   4.437  62.540  1.00  0.00     0.111 A 
ENDBRANCH  34  36
ENDBRANCH  28  30
ENDBRANCH   6  28
TORSDOF 7
ENDMDL
MODEL 14
REMARK VINA RESULT:   -10.487      5.208      8.056
REMARK INTER + INTRA:         -13.772
REMARK INTER:                 -12.575
REMARK INTRA:                  -1.197
REMARK CONF_INDEPENDENT:        2.088
REMARK UNBOUND:                -1.197
REMARK SMILES Cc1cn(-c2cc(NC(=O)c3ccc(C)c(Nc4nccc(-c5cccnc5)n4)c3)cc(C(F)(F)F)c2)cn1
REMARK SMILES IDX 11 1 12 2 13 3 14 4 15 5 16 6 30 7 9 8 10 9 8 10 7 12 6 13
REMARK SMILES IDX 31 14 5 15 32 16 37 17 4 18 3 19 38 20 2 21 39 22 1 23 33 24
REMARK SMILES IDX 34 25 35 26 36 27 17 28 18 30 19 31 29 32 20 33 22 34 21 35
REMARK SMILES IDX 23 36 24 37 28 38 25 39 27 40 26 41
REMARK H PARENT 8 11 17 29
ROOT
ATOM      1  C   UNL     1      24.493   5.913  54.195  1.00  0.00     0.042 A 
ATOM      2  C   UNL     1      23.893   6.633  53.151  1.00  0.00     0.014 A 
ATOM      3  C   UNL     1      23.773   6.092  51.870  1.00  0.00     0.006 A 
ATOM      4  C   UNL     1      24.317   4.856  51.558  1.00  0.00    -0.027 A 
ATOM      5  C   UNL     1      24.185   4.282  50.155  1.00  0.00     0.046 C 
ATOM      6  C   UNL     1      25.005   4.181  52.565  1.00  0.00     0.045 A 
ATOM      7  C   UNL     1      25.092   4.729  53.850  1.00  0.00     0.040 A 
ENDROOT
BRANCH   1   8
ATOM      8  C   UNL     1      24.774   6.454  55.539  1.00  0.00     0.255 C 
ATOM      9  O   UNL     1      25.837   7.012  55.662  1.00  0.00    -0.269 OA
ATOM     10  N   UNL     1      23.738   6.491  56.391  1.00  0.00    -0.322 N 
ATOM     11  H   UNL     1      22.851   6.081  56.065  1.00  0.00     0.170 HD
BRANCH  10  12
ATOM     12  C   UNL     1      23.752   7.031  57.670  1.00  0.00     0.044 A 
ATOM     13  C   UNL     1      24.697   6.597  58.632  1.00  0.00     0.052 A 
ATOM     14  C   UNL     1      22.749   7.937  58.078  1.00  0.00     0.039 A 
ATOM     15  C   UNL     1      24.726   7.142  59.919  1.00  0.00     0.049 A 
ATOM     16  C   UNL     1      22.793   8.507  59.383  1.00  0.00     0.060 A 
ATOM     17  C   UNL     1      23.762   8.073  60.290  1.00  0.00     0.039 A 
BRANCH  15  18
ATOM     18  N   UNL     1      25.685   6.749  60.865  1.00  0.00    -0.306 N 
ATOM     19  C   UNL     1      25.950   5.476  61.367  1.00  0.00     0.116 A 
ATOM     20  C   UNL     1      26.497   7.552  61.563  1.00  0.00     0.204 A 
ATOM     21  C   UNL     1      26.899   5.588  62.321  1.00  0.00     0.056 A 
ATOM     22  N   UNL     1      27.252   6.890  62.406  1.00  0.00    -0.242 NA
ATOM     23  C   UNL     1      27.529   4.486  63.138  1.00  0.00     0.068 C 
ENDBRANCH  15  18
BRANCH  16  24
ATOM     24  C   UNL     1      21.753   9.509  59.768  1.00  0.00     0.416 C 
ATOM     25  F   UNL     1      20.716   9.610  58.914  1.00  0.00    -0.166 F 
ATOM     26  F   UNL     1      21.148   9.158  60.896  1.00  0.00    -0.166 F 
ATOM     27  F   UNL     1      22.244  10.765  59.815  1.00  0.00    -0.166 F 
ENDBRANCH  16  24
ENDBRANCH  10  12
ENDBRANCH   1   8
BRANCH   6  28
ATOM     28  N   UNL     1      25.420   2.865  52.322  1.00  0.00    -0.324 N 
ATOM     29  H   UNL     1      24.734   2.097  52.316  1.00  0.00     0.170 HD
BRANCH  28  30
ATOM     30  C   UNL     1      26.771   2.603  52.087  1.00  0.00     0.227 A 
ATOM     31  N   UNL     1      27.608   3.222  51.265  1.00  0.00    -0.221 NA
ATOM     32  N   UNL     1      27.109   1.505  52.811  1.00  0.00    -0.213 NA
ATOM     33  C   UNL     1      28.862   2.734  51.197  1.00  0.00     0.117 A 
ATOM     34  C   UNL     1      28.357   1.038  52.687  1.00  0.00     0.077 A 
ATOM     35  C   UNL     1      29.251   1.644  51.876  1.00  0.00     0.049 A 
BRANCH  34  36
ATOM     36  C   UNL     1      28.688  -0.143  53.526  1.00  0.00     0.019 A 
ATOM     37  C   UNL     1      27.904  -0.500  54.635  1.00  0.00     0.013 A 
ATOM     38  C   UNL     1      29.816  -0.934  53.235  1.00  0.00     0.121 A 
ATOM     39  C   UNL     1      28.276  -1.599  55.398  1.00  0.00     0.021 A 
ATOM     40  N   UNL     1      30.184  -1.990  53.971  1.00  0.00    -0.264 NA
ATOM     41  C   UNL     1      29.402  -2.324  55.011  1.00  0.00     0.111 A 
ENDBRANCH  34  36
ENDBRANCH  28  30
ENDBRANCH   6  28
TORSDOF 7
ENDMDL
MODEL 15
REMARK VINA RESULT:   -10.405      3.292     11.945
REMARK INTER + INTRA:         -13.700
REMARK INTER:                 -12.493
REMARK INTRA:                  -1.206
REMARK CONF_INDEPENDENT:        2.088
REMARK UNBOUND:                -1.206
REMARK SMILES Cc1cn(-c2cc(NC(=O)c3ccc(C)c(Nc4nccc(-c5cccnc5)n4)c3)cc(C(F)(F)F)c2)cn1
REMARK SMILES IDX 11 1 12 2 13 3 14 4 15 5 16 6 30 7 9 8 10 9 8 10 7 12 6 13
REMARK SMILES IDX 31 14 5 15 32 16 37 17 4 18 3 19 38 20 2 21 39 22 1 23 33 24
REMARK SMILES IDX 34 25 35 26 36 27 17 28 18 30 19 31 29 32 20 33 22 34 21 35
REMARK SMILES IDX 23 36 24 37 28 38 25 39 27 40 26 41
REMARK H PARENT 8 11 17 29
ROOT
ATOM      1  C   UNL     1      25.280   3.813  51.159  1.00  0.00     0.042 A 
ATOM      2  C   UNL     1      25.430   3.975  49.774  1.00  0.00     0.014 A 
ATOM      3  C   UNL     1      24.476   4.651  49.013  1.00  0.00     0.006 A 
ATOM      4  C   UNL     1      23.302   5.118  49.583  1.00  0.00    -0.027 A 
ATOM      5  C   UNL     1      22.266   5.848  48.740  1.00  0.00     0.046 C 
ATOM      6  C   UNL     1      23.099   4.870  50.940  1.00  0.00     0.045 A 
ATOM      7  C   UNL     1      24.081   4.211  51.691  1.00  0.00     0.040 A 
ENDROOT
BRANCH   1   8
ATOM      8  C   UNL     1      26.172   3.007  52.016  1.00  0.00     0.255 C 
ATOM      9  O   UNL     1      25.775   2.812  53.139  1.00  0.00    -0.269 OA
ATOM     10  N   UNL     1      27.180   2.377  51.394  1.00  0.00    -0.322 N 
ATOM     11  H   UNL     1      27.292   2.558  50.386  1.00  0.00     0.170 HD
BRANCH  10  12
ATOM     12  C   UNL     1      28.085   1.505  51.984  1.00  0.00     0.044 A 
ATOM     13  C   UNL     1      29.306   1.180  51.343  1.00  0.00     0.052 A 
ATOM     14  C   UNL     1      27.756   0.829  53.179  1.00  0.00     0.039 A 
ATOM     15  C   UNL     1      30.228   0.311  51.934  1.00  0.00     0.049 A 
ATOM     16  C   UNL     1      28.705  -0.039  53.791  1.00  0.00     0.060 A 
ATOM     17  C   UNL     1      29.911  -0.308  53.138  1.00  0.00     0.039 A 
BRANCH  15  18
ATOM     18  N   UNL     1      31.458   0.016  51.327  1.00  0.00    -0.306 N 
ATOM     19  C   UNL     1      31.736  -0.895  50.309  1.00  0.00     0.116 A 
ATOM     20  C   UNL     1      32.658   0.496  51.673  1.00  0.00     0.204 A 
ATOM     21  C   UNL     1      33.071  -0.904  50.104  1.00  0.00     0.056 A 
ATOM     22  N   UNL     1      33.626  -0.003  50.945  1.00  0.00    -0.242 NA
ATOM     23  C   UNL     1      33.850  -1.713  49.095  1.00  0.00     0.068 C 
ENDBRANCH  15  18
BRANCH  16  24
ATOM     24  C   UNL     1      28.354  -0.695  55.086  1.00  0.00     0.416 C 
ATOM     25  F   UNL     1      29.396  -1.220  55.761  1.00  0.00    -0.166 F 
ATOM     26  F   UNL     1      27.881   0.190  55.956  1.00  0.00    -0.166 F 
ATOM     27  F   UNL     1      27.526  -1.747  54.921  1.00  0.00    -0.166 F 
ENDBRANCH  16  24
ENDBRANCH  10  12
ENDBRANCH   1   8
BRANCH   6  28
ATOM     28  N   UNL     1      22.002   5.470  51.571  1.00  0.00    -0.324 N 
ATOM     29  H   UNL     1      21.122   5.615  51.056  1.00  0.00     0.170 HD
BRANCH  28  30
ATOM     30  C   UNL     1      22.112   5.872  52.903  1.00  0.00     0.227 A 
ATOM     31  N   UNL     1      21.989   5.142  54.005  1.00  0.00    -0.221 NA
ATOM     32  N   UNL     1      22.298   7.217  52.915  1.00  0.00    -0.213 NA
ATOM     33  C   UNL     1      22.099   5.794  55.178  1.00  0.00     0.117 A 
ATOM     34  C   UNL     1      22.369   7.825  54.104  1.00  0.00     0.077 A 
ATOM     35  C   UNL     1      22.268   7.124  55.254  1.00  0.00     0.049 A 
BRANCH  34  36
ATOM     36  C   UNL     1      22.609   9.291  54.063  1.00  0.00     0.019 A 
ATOM     37  C   UNL     1      23.706   9.876  54.715  1.00  0.00     0.013 A 
ATOM     38  C   UNL     1      21.723  10.142  53.373  1.00  0.00     0.121 A 
ATOM     39  C   UNL     1      23.866  11.255  54.663  1.00  0.00     0.021 A 
ATOM     40  N   UNL     1      21.867  11.472  53.326  1.00  0.00    -0.264 NA
ATOM     41  C   UNL     1      22.939  12.002  53.938  1.00  0.00     0.111 A 
ENDBRANCH  34  36
ENDBRANCH  28  30
ENDBRANCH   6  28
TORSDOF 7
ENDMDL
MODEL 16
REMARK VINA RESULT:   -10.369      3.414     12.103
REMARK INTER + INTRA:         -13.634
REMARK INTER:                 -12.457
REMARK INTRA:                  -1.177
REMARK CONF_INDEPENDENT:        2.088
REMARK UNBOUND:                -1.177
REMARK SMILES Cc1cn(-c2cc(NC(=O)c3ccc(C)c(Nc4nccc(-c5cccnc5)n4)c3)cc(C(F)(F)F)c2)cn1
REMARK SMILES IDX 11 1 12 2 13 3 14 4 15 5 16 6 30 7 9 8 10 9 8 10 7 12 6 13
REMARK SMILES IDX 31 14 5 15 32 16 37 17 4 18 3 19 38 20 2 21 39 22 1 23 33 24
REMARK SMILES IDX 34 25 35 26 36 27 17 28 18 30 19 31 29 32 20 33 22 34 21 35
REMARK SMILES IDX 23 36 24 37 28 38 25 39 27 40 26 41
REMARK H PARENT 8 11 17 29
ROOT
ATOM      1  C   UNL     1      26.105   3.326  51.930  1.00  0.00     0.042 A 
ATOM      2  C   UNL     1      26.027   3.594  50.556  1.00  0.00     0.014 A 
ATOM      3  C   UNL     1      24.926   4.253  50.005  1.00  0.00     0.006 A 
ATOM      4  C   UNL     1      23.830   4.593  50.781  1.00  0.00    -0.027 A 
ATOM      5  C   UNL     1      22.634   5.304  50.165  1.00  0.00     0.046 C 
ATOM      6  C   UNL     1      23.857   4.237  52.128  1.00  0.00     0.045 A 
ATOM      7  C   UNL     1      24.982   3.599  52.667  1.00  0.00     0.040 A 
ENDROOT
BRANCH   1   8
ATOM      8  C   UNL     1      27.165   2.527  52.575  1.00  0.00     0.255 C 
ATOM      9  O   UNL     1      27.101   2.454  53.778  1.00  0.00    -0.269 OA
ATOM     10  N   UNL     1      27.919   1.776  51.758  1.00  0.00    -0.322 N 
ATOM     11  H   UNL     1      27.745   1.865  50.747  1.00  0.00     0.170 HD
BRANCH  10  12
ATOM     12  C   UNL     1      28.914   0.889  52.151  1.00  0.00     0.044 A 
ATOM     13  C   UNL     1      30.107   0.754  51.399  1.00  0.00     0.052 A 
ATOM     14  C   UNL     1      28.706   0.015  53.241  1.00  0.00     0.039 A 
ATOM     15  C   UNL     1      31.117  -0.129  51.792  1.00  0.00     0.049 A 
ATOM     16  C   UNL     1      29.745  -0.867  53.653  1.00  0.00     0.060 A 
ATOM     17  C   UNL     1      30.919  -0.947  52.900  1.00  0.00     0.039 A 
BRANCH  15  18
ATOM     18  N   UNL     1      32.319  -0.239  51.078  1.00  0.00    -0.306 N 
ATOM     19  C   UNL     1      32.714  -1.224  50.174  1.00  0.00     0.116 A 
ATOM     20  C   UNL     1      33.394   0.550  51.192  1.00  0.00     0.204 A 
ATOM     21  C   UNL     1      33.986  -0.968  49.800  1.00  0.00     0.056 A 
ATOM     22  N   UNL     1      34.383   0.164  50.422  1.00  0.00    -0.242 NA
ATOM     23  C   UNL     1      34.840  -1.740  48.824  1.00  0.00     0.068 C 
ENDBRANCH  15  18
BRANCH  16  24
ATOM     24  C   UNL     1      29.521  -1.738  54.846  1.00  0.00     0.416 C 
ATOM     25  F   UNL     1      28.933  -2.922  54.585  1.00  0.00    -0.166 F 
ATOM     26  F   UNL     1      30.675  -2.117  55.384  1.00  0.00    -0.166 F 
ATOM     27  F   UNL     1      28.695  -1.170  55.748  1.00  0.00    -0.166 F 
ENDBRANCH  16  24
ENDBRANCH  10  12
ENDBRANCH   1   8
BRANCH   6  28
ATOM     28  N   UNL     1      22.838   4.712  52.964  1.00  0.00    -0.324 N 
ATOM     29  H   UNL     1      22.105   4.074  53.304  1.00  0.00     0.170 HD
BRANCH  28  30
ATOM     30  C   UNL     1      22.825   6.059  53.333  1.00  0.00     0.227 A 
ATOM     31  N   UNL     1      22.961   7.133  52.567  1.00  0.00    -0.221 NA
ATOM     32  N   UNL     1      22.722   6.114  54.686  1.00  0.00    -0.213 NA
ATOM     33  C   UNL     1      22.955   8.327  53.191  1.00  0.00     0.117 A 
ATOM     34  C   UNL     1      22.753   7.320  55.264  1.00  0.00     0.077 A 
ATOM     35  C   UNL     1      22.872   8.445  54.525  1.00  0.00     0.049 A 
BRANCH  34  36
ATOM     36  C   UNL     1      22.602   7.329  56.742  1.00  0.00     0.019 A 
ATOM     37  C   UNL     1      23.682   7.047  57.593  1.00  0.00     0.013 A 
ATOM     38  C   UNL     1      21.353   7.609  57.332  1.00  0.00     0.121 A 
ATOM     39  C   UNL     1      23.476   7.044  58.967  1.00  0.00     0.021 A 
ATOM     40  N   UNL     1      21.147   7.600  58.655  1.00  0.00    -0.264 NA
ATOM     41  C   UNL     1      22.203   7.352  59.447  1.00  0.00     0.111 A 
ENDBRANCH  34  36
ENDBRANCH  28  30
ENDBRANCH   6  28
TORSDOF 7
ENDMDL
MODEL 17
REMARK VINA RESULT:   -10.361      5.047     13.712
REMARK INTER + INTRA:         -13.662
REMARK INTER:                 -12.449
REMARK INTRA:                  -1.213
REMARK CONF_INDEPENDENT:        2.088
REMARK UNBOUND:                -1.213
REMARK SMILES Cc1cn(-c2cc(NC(=O)c3ccc(C)c(Nc4nccc(-c5cccnc5)n4)c3)cc(C(F)(F)F)c2)cn1
REMARK SMILES IDX 11 1 12 2 13 3 14 4 15 5 16 6 30 7 9 8 10 9 8 10 7 12 6 13
REMARK SMILES IDX 31 14 5 15 32 16 37 17 4 18 3 19 38 20 2 21 39 22 1 23 33 24
REMARK SMILES IDX 34 25 35 26 36 27 17 28 18 30 19 31 29 32 20 33 22 34 21 35
REMARK SMILES IDX 23 36 24 37 28 38 25 39 27 40 26 41
REMARK H PARENT 8 11 17 29
ROOT
ATOM      1  C   UNL     1      21.384   9.455  54.047  1.00  0.00     0.042 A 
ATOM      2  C   UNL     1      22.185  10.029  55.045  1.00  0.00     0.014 A 
ATOM      3  C   UNL     1      21.627  10.759  56.095  1.00  0.00     0.006 A 
ATOM      4  C   UNL     1      20.266  11.015  56.148  1.00  0.00    -0.027 A 
ATOM      5  C   UNL     1      19.671  11.818  57.296  1.00  0.00     0.046 C 
ATOM      6  C   UNL     1      19.477  10.535  55.104  1.00  0.00     0.045 A 
ATOM      7  C   UNL     1      20.054   9.784  54.072  1.00  0.00     0.040 A 
ENDROOT
BRANCH   1   8
ATOM      8  C   UNL     1      21.897   8.780  52.838  1.00  0.00     0.255 C 
ATOM      9  O   UNL     1      22.077   9.495  51.882  1.00  0.00    -0.269 OA
ATOM     10  N   UNL     1      22.339   7.524  53.004  1.00  0.00    -0.322 N 
ATOM     11  H   UNL     1      22.226   7.109  53.939  1.00  0.00     0.170 HD
BRANCH  10  12
ATOM     12  C   UNL     1      22.936   6.734  52.030  1.00  0.00     0.044 A 
ATOM     13  C   UNL     1      23.932   5.786  52.372  1.00  0.00     0.052 A 
ATOM     14  C   UNL     1      22.650   6.941  50.663  1.00  0.00     0.039 A 
ATOM     15  C   UNL     1      24.530   4.979  51.401  1.00  0.00     0.049 A 
ATOM     16  C   UNL     1      23.244   6.103  49.677  1.00  0.00     0.060 A 
ATOM     17  C   UNL     1      24.200   5.160  50.061  1.00  0.00     0.039 A 
BRANCH  15  18
ATOM     18  N   UNL     1      25.487   4.008  51.734  1.00  0.00    -0.306 N 
ATOM     19  C   UNL     1      26.025   3.702  52.983  1.00  0.00     0.116 A 
ATOM     20  C   UNL     1      26.160   3.222  50.886  1.00  0.00     0.204 A 
ATOM     21  C   UNL     1      26.975   2.757  52.813  1.00  0.00     0.056 A 
ATOM     22  N   UNL     1      27.021   2.447  51.498  1.00  0.00    -0.242 NA
ATOM     23  C   UNL     1      27.823   2.092  53.870  1.00  0.00     0.068 C 
ENDBRANCH  15  18
BRANCH  16  24
ATOM     24  C   UNL     1      22.878   6.305  48.242  1.00  0.00     0.416 C 
ATOM     25  F   UNL     1      23.917   6.301  47.383  1.00  0.00    -0.166 F 
ATOM     26  F   UNL     1      22.143   5.296  47.791  1.00  0.00    -0.166 F 
ATOM     27  F   UNL     1      22.297   7.503  48.025  1.00  0.00    -0.166 F 
ENDBRANCH  16  24
ENDBRANCH  10  12
ENDBRANCH   1   8
BRANCH   6  28
ATOM     28  N   UNL     1      18.085  10.640  55.217  1.00  0.00    -0.324 N 
ATOM     29  H   UNL     1      17.655  10.885  56.120  1.00  0.00     0.170 HD
BRANCH  28  30
ATOM     30  C   UNL     1      17.285  10.408  54.096  1.00  0.00     0.227 A 
ATOM     31  N   UNL     1      16.988  11.234  53.101  1.00  0.00    -0.221 NA
ATOM     32  N   UNL     1      16.759   9.162  54.216  1.00  0.00    -0.213 NA
ATOM     33  C   UNL     1      16.149  10.767  52.157  1.00  0.00     0.117 A 
ATOM     34  C   UNL     1      15.905   8.754  53.270  1.00  0.00     0.077 A 
ATOM     35  C   UNL     1      15.585   9.551  52.228  1.00  0.00     0.049 A 
BRANCH  34  36
ATOM     36  C   UNL     1      15.385   7.371  53.428  1.00  0.00     0.019 A 
ATOM     37  C   UNL     1      14.756   6.952  54.611  1.00  0.00     0.013 A 
ATOM     38  C   UNL     1      15.525   6.431  52.388  1.00  0.00     0.121 A 
ATOM     39  C   UNL     1      14.312   5.640  54.712  1.00  0.00     0.021 A 
ATOM     40  N   UNL     1      15.106   5.162  52.482  1.00  0.00    -0.264 NA
ATOM     41  C   UNL     1      14.485   4.796  53.615  1.00  0.00     0.111 A 
ENDBRANCH  34  36
ENDBRANCH  28  30
ENDBRANCH   6  28
TORSDOF 7
ENDMDL
MODEL 18
REMARK VINA RESULT:   -10.357      4.324     10.755
REMARK INTER + INTRA:         -13.618
REMARK INTER:                 -12.445
REMARK INTRA:                  -1.173
REMARK CONF_INDEPENDENT:        2.088
REMARK UNBOUND:                -1.173
REMARK SMILES Cc1cn(-c2cc(NC(=O)c3ccc(C)c(Nc4nccc(-c5cccnc5)n4)c3)cc(C(F)(F)F)c2)cn1
REMARK SMILES IDX 11 1 12 2 13 3 14 4 15 5 16 6 30 7 9 8 10 9 8 10 7 12 6 13
REMARK SMILES IDX 31 14 5 15 32 16 37 17 4 18 3 19 38 20 2 21 39 22 1 23 33 24
REMARK SMILES IDX 34 25 35 26 36 27 17 28 18 30 19 31 29 32 20 33 22 34 21 35
REMARK SMILES IDX 23 36 24 37 28 38 25 39 27 40 26 41
REMARK H PARENT 8 11 17 29
ROOT
ATOM      1  C   UNL     1      22.341   6.656  55.260  1.00  0.00     0.042 A 
ATOM      2  C   UNL     1      21.578   7.792  54.949  1.00  0.00     0.014 A 
ATOM      3  C   UNL     1      21.106   8.646  55.947  1.00  0.00     0.006 A 
ATOM      4  C   UNL     1      21.302   8.360  57.289  1.00  0.00    -0.027 A 
ATOM      5  C   UNL     1      20.775   9.297  58.367  1.00  0.00     0.046 C 
ATOM      6  C   UNL     1      21.970   7.179  57.607  1.00  0.00     0.045 A 
ATOM      7  C   UNL     1      22.458   6.348  56.590  1.00  0.00     0.040 A 
ENDROOT
BRANCH   1   8
ATOM      8  C   UNL     1      22.770   5.636  54.283  1.00  0.00     0.255 C 
ATOM      9  O   UNL     1      21.957   4.779  54.038  1.00  0.00    -0.269 OA
ATOM     10  N   UNL     1      23.892   5.906  53.599  1.00  0.00    -0.322 N 
ATOM     11  H   UNL     1      24.399   6.766  53.853  1.00  0.00     0.170 HD
BRANCH  10  12
ATOM     12  C   UNL     1      24.432   5.133  52.579  1.00  0.00     0.044 A 
ATOM     13  C   UNL     1      25.522   4.262  52.827  1.00  0.00     0.052 A 
ATOM     14  C   UNL     1      23.986   5.286  51.249  1.00  0.00     0.039 A 
ATOM     15  C   UNL     1      26.066   3.473  51.810  1.00  0.00     0.049 A 
ATOM     16  C   UNL     1      24.526   4.465  50.218  1.00  0.00     0.060 A 
ATOM     17  C   UNL     1      25.581   3.597  50.512  1.00  0.00     0.039 A 
BRANCH  15  18
ATOM     18  N   UNL     1      27.118   2.577  52.053  1.00  0.00    -0.306 N 
ATOM     19  C   UNL     1      27.272   1.672  53.102  1.00  0.00     0.116 A 
ATOM     20  C   UNL     1      28.258   2.472  51.360  1.00  0.00     0.204 A 
ATOM     21  C   UNL     1      28.480   1.080  52.975  1.00  0.00     0.056 A 
ATOM     22  N   UNL     1      29.067   1.570  51.861  1.00  0.00    -0.242 NA
ATOM     23  C   UNL     1      29.091   0.018  53.856  1.00  0.00     0.068 C 
ENDBRANCH  15  18
BRANCH  16  24
ATOM     24  C   UNL     1      23.993   4.606  48.829  1.00  0.00     0.416 C 
ATOM     25  F   UNL     1      22.726   5.058  48.749  1.00  0.00    -0.166 F 
ATOM     26  F   UNL     1      24.660   5.534  48.154  1.00  0.00    -0.166 F 
ATOM     27  F   UNL     1      23.947   3.426  48.176  1.00  0.00    -0.166 F 
ENDBRANCH  16  24
ENDBRANCH  10  12
ENDBRANCH   1   8
BRANCH   6  28
ATOM     28  N   UNL     1      22.322   6.951  58.944  1.00  0.00    -0.324 N 
ATOM     29  H   UNL     1      21.806   6.259  59.506  1.00  0.00     0.170 HD
BRANCH  28  30
ATOM     30  C   UNL     1      23.377   7.669  59.508  1.00  0.00     0.227 A 
ATOM     31  N   UNL     1      23.633   8.969  59.435  1.00  0.00    -0.221 NA
ATOM     32  N   UNL     1      24.201   6.779  60.120  1.00  0.00    -0.213 NA
ATOM     33  C   UNL     1      24.755   9.401  60.041  1.00  0.00     0.117 A 
ATOM     34  C   UNL     1      25.320   7.251  60.681  1.00  0.00     0.077 A 
ATOM     35  C   UNL     1      25.616   8.569  60.648  1.00  0.00     0.049 A 
BRANCH  34  36
ATOM     36  C   UNL     1      26.169   6.243  61.367  1.00  0.00     0.019 A 
ATOM     37  C   UNL     1      26.400   6.295  62.751  1.00  0.00     0.013 A 
ATOM     38  C   UNL     1      26.782   5.207  60.636  1.00  0.00     0.121 A 
ATOM     39  C   UNL     1      27.223   5.340  63.335  1.00  0.00     0.021 A 
ATOM     40  N   UNL     1      27.582   4.288  61.191  1.00  0.00    -0.264 NA
ATOM     41  C   UNL     1      27.766   4.347  62.521  1.00  0.00     0.111 A 
ENDBRANCH  34  36
ENDBRANCH  28  30
ENDBRANCH   6  28
TORSDOF 7
ENDMDL
MODEL 19
REMARK VINA RESULT:   -10.284      3.441     11.138
REMARK INTER + INTRA:         -13.655
REMARK INTER:                 -12.372
REMARK INTRA:                  -1.282
REMARK CONF_INDEPENDENT:        2.088
REMARK UNBOUND:                -1.282
REMARK SMILES Cc1cn(-c2cc(NC(=O)c3ccc(C)c(Nc4nccc(-c5cccnc5)n4)c3)cc(C(F)(F)F)c2)cn1
REMARK SMILES IDX 11 1 12 2 13 3 14 4 15 5 16 6 30 7 9 8 10 9 8 10 7 12 6 13
REMARK SMILES IDX 31 14 5 15 32 16 37 17 4 18 3 19 38 20 2 21 39 22 1 23 33 24
REMARK SMILES IDX 34 25 35 26 36 27 17 28 18 30 19 31 29 32 20 33 22 34 21 35
REMARK SMILES IDX 23 36 24 37 28 38 25 39 27 40 26 41
REMARK H PARENT 8 11 17 29
ROOT
ATOM      1  C   UNL     1      25.622   3.788  51.271  1.00  0.00     0.042 A 
ATOM      2  C   UNL     1      25.384   3.601  49.901  1.00  0.00     0.014 A 
ATOM      3  C   UNL     1      24.452   4.378  49.212  1.00  0.00     0.006 A 
ATOM      4  C   UNL     1      23.665   5.309  49.872  1.00  0.00    -0.027 A 
ATOM      5  C   UNL     1      22.647   6.145  49.110  1.00  0.00     0.046 C 
ATOM      6  C   UNL     1      23.824   5.427  51.252  1.00  0.00     0.045 A 
ATOM      7  C   UNL     1      24.782   4.655  51.920  1.00  0.00     0.040 A 
ENDROOT
BRANCH   1   8
ATOM      8  C   UNL     1      26.491   2.931  52.101  1.00  0.00     0.255 C 
ATOM      9  O   UNL     1      26.101   2.730  53.225  1.00  0.00    -0.269 OA
ATOM     10  N   UNL     1      27.466   2.274  51.454  1.00  0.00    -0.322 N 
ATOM     11  H   UNL     1      27.573   2.469  50.448  1.00  0.00     0.170 HD
BRANCH  10  12
ATOM     12  C   UNL     1      28.344   1.356  52.016  1.00  0.00     0.044 A 
ATOM     13  C   UNL     1      29.555   1.015  51.364  1.00  0.00     0.052 A 
ATOM     14  C   UNL     1      27.993   0.652  53.188  1.00  0.00     0.039 A 
ATOM     15  C   UNL     1      30.449   0.099  51.927  1.00  0.00     0.049 A 
ATOM     16  C   UNL     1      28.915  -0.264  53.771  1.00  0.00     0.060 A 
ATOM     17  C   UNL     1      30.112  -0.548  53.111  1.00  0.00     0.039 A 
BRANCH  15  18
ATOM     18  N   UNL     1      31.670  -0.214  51.310  1.00  0.00    -0.306 N 
ATOM     19  C   UNL     1      31.938  -1.172  50.334  1.00  0.00     0.116 A 
ATOM     20  C   UNL     1      32.871   0.295  51.608  1.00  0.00     0.204 A 
ATOM     21  C   UNL     1      33.269  -1.178  50.103  1.00  0.00     0.056 A 
ATOM     22  N   UNL     1      33.831  -0.230  50.887  1.00  0.00    -0.242 NA
ATOM     23  C   UNL     1      34.037  -2.028  49.120  1.00  0.00     0.068 C 
ENDBRANCH  15  18
BRANCH  16  24
ATOM     24  C   UNL     1      28.542  -0.950  55.045  1.00  0.00     0.416 C 
ATOM     25  F   UNL     1      29.534  -1.654  55.624  1.00  0.00    -0.166 F 
ATOM     26  F   UNL     1      28.242  -0.068  55.992  1.00  0.00    -0.166 F 
ATOM     27  F   UNL     1      27.569  -1.867  54.868  1.00  0.00    -0.166 F 
ENDBRANCH  16  24
ENDBRANCH  10  12
ENDBRANCH   1   8
BRANCH   6  28
ATOM     28  N   UNL     1      23.161   6.469  51.913  1.00  0.00    -0.324 N 
ATOM     29  H   UNL     1      22.940   7.343  51.414  1.00  0.00     0.170 HD
BRANCH  28  30
ATOM     30  C   UNL     1      22.802   6.314  53.253  1.00  0.00     0.227 A 
ATOM     31  N   UNL     1      21.601   6.095  53.773  1.00  0.00    -0.221 NA
ATOM     32  N   UNL     1      23.917   6.507  54.003  1.00  0.00    -0.213 NA
ATOM     33  C   UNL     1      21.525   6.028  55.116  1.00  0.00     0.117 A 
ATOM     34  C   UNL     1      23.786   6.464  55.334  1.00  0.00     0.077 A 
ATOM     35  C   UNL     1      22.588   6.226  55.911  1.00  0.00     0.049 A 
BRANCH  34  36
ATOM     36  C   UNL     1      25.041   6.646  56.109  1.00  0.00     0.019 A 
ATOM     37  C   UNL     1      25.023   7.059  57.451  1.00  0.00     0.013 A 
ATOM     38  C   UNL     1      26.294   6.422  55.505  1.00  0.00     0.121 A 
ATOM     39  C   UNL     1      26.229   7.238  58.118  1.00  0.00     0.021 A 
ATOM     40  N   UNL     1      27.459   6.600  56.141  1.00  0.00    -0.264 NA
ATOM     41  C   UNL     1      27.412   6.971  57.431  1.00  0.00     0.111 A 
ENDBRANCH  34  36
ENDBRANCH  28  30
ENDBRANCH   6  28
TORSDOF 7
ENDMDL
MODEL 20
REMARK VINA RESULT:    -9.698      4.095     10.481
REMARK INTER + INTRA:         -13.657
REMARK INTER:                 -11.786
REMARK INTRA:                  -1.871
REMARK CONF_INDEPENDENT:        2.088
REMARK UNBOUND:                -1.871
REMARK SMILES Cc1cn(-c2cc(NC(=O)c3ccc(C)c(Nc4nccc(-c5cccnc5)n4)c3)cc(C(F)(F)F)c2)cn1
REMARK SMILES IDX 11 1 12 2 13 3 14 4 15 5 16 6 30 7 9 8 10 9 8 10 7 12 6 13
REMARK SMILES IDX 31 14 5 15 32 16 37 17 4 18 3 19 38 20 2 21 39 22 1 23 33 24
REMARK SMILES IDX 34 25 35 26 36 27 17 28 18 30 19 31 29 32 20 33 22 34 21 35
REMARK SMILES IDX 23 36 24 37 28 38 25 39 27 40 26 41
REMARK H PARENT 8 11 17 29
ROOT
ATOM      1  C   UNL     1      21.648   6.768  54.155  1.00  0.00     0.042 A 
ATOM      2  C   UNL     1      21.111   7.933  53.587  1.00  0.00     0.014 A 
ATOM      3  C   UNL     1      20.393   8.851  54.354  1.00  0.00     0.006 A 
ATOM      4  C   UNL     1      20.110   8.607  55.688  1.00  0.00    -0.027 A 
ATOM      5  C   UNL     1      19.318   9.614  56.511  1.00  0.00     0.046 C 
ATOM      6  C   UNL     1      20.551   7.402  56.233  1.00  0.00     0.045 A 
ATOM      7  C   UNL     1      21.293   6.505  55.453  1.00  0.00     0.040 A 
ENDROOT
BRANCH   1   8
ATOM      8  C   UNL     1      22.308   5.686  53.397  1.00  0.00     0.255 C 
ATOM      9  O   UNL     1      21.676   4.663  53.297  1.00  0.00    -0.269 OA
ATOM     10  N   UNL     1      23.401   6.034  52.701  1.00  0.00    -0.322 N 
ATOM     11  H   UNL     1      23.731   7.004  52.802  1.00  0.00     0.170 HD
BRANCH  10  12
ATOM     12  C   UNL     1      24.128   5.204  51.857  1.00  0.00     0.044 A 
ATOM     13  C   UNL     1      25.276   4.517  52.324  1.00  0.00     0.052 A 
ATOM     14  C   UNL     1      23.811   5.122  50.483  1.00  0.00     0.039 A 
ATOM     15  C   UNL     1      26.008   3.673  51.486  1.00  0.00     0.049 A 
ATOM     16  C   UNL     1      24.545   4.244  49.636  1.00  0.00     0.060 A 
ATOM     17  C   UNL     1      25.652   3.561  50.145  1.00  0.00     0.039 A 
BRANCH  15  18
ATOM     18  N   UNL     1      27.121   2.955  51.950  1.00  0.00    -0.306 N 
ATOM     19  C   UNL     1      27.567   2.782  53.259  1.00  0.00     0.116 A 
ATOM     20  C   UNL     1      28.054   2.353  51.203  1.00  0.00     0.204 A 
ATOM     21  C   UNL     1      28.727   2.089  53.221  1.00  0.00     0.056 A 
ATOM     22  N   UNL     1      28.997   1.802  51.928  1.00  0.00    -0.242 NA
ATOM     23  C   UNL     1      29.579   1.641  54.384  1.00  0.00     0.068 C 
ENDBRANCH  15  18
BRANCH  16  24
ATOM     24  C   UNL     1      24.150   4.131  48.199  1.00  0.00     0.416 C 
ATOM     25  F   UNL     1      22.827   4.228  47.963  1.00  0.00    -0.166 F 
ATOM     26  F   UNL     1      24.631   5.145  47.490  1.00  0.00    -0.166 F 
ATOM     27  F   UNL     1      24.475   2.933  47.671  1.00  0.00    -0.166 F 
ENDBRANCH  16  24
ENDBRANCH  10  12
ENDBRANCH   1   8
BRANCH   6  28
ATOM     28  N   UNL     1      20.420   7.206  57.613  1.00  0.00    -0.324 N 
ATOM     29  H   UNL     1      19.525   6.887  58.010  1.00  0.00     0.170 HD
BRANCH  28  30
ATOM     30  C   UNL     1      21.513   7.448  58.448  1.00  0.00     0.227 A 
ATOM     31  N   UNL     1      21.525   7.915  59.690  1.00  0.00    -0.221 NA
ATOM     32  N   UNL     1      22.640   7.191  57.735  1.00  0.00    -0.213 NA
ATOM     33  C   UNL     1      22.733   8.097  60.257  1.00  0.00     0.117 A 
ATOM     34  C   UNL     1      23.817   7.417  58.330  1.00  0.00     0.077 A 
ATOM     35  C   UNL     1      23.882   7.875  59.599  1.00  0.00     0.049 A 
BRANCH  34  36
ATOM     36  C   UNL     1      25.020   7.087  57.521  1.00  0.00     0.019 A 
ATOM     37  C   UNL     1      24.944   6.907  56.131  1.00  0.00     0.013 A 
ATOM     38  C   UNL     1      26.276   6.930  58.138  1.00  0.00     0.121 A 
ATOM     39  C   UNL     1      26.096   6.575  55.429  1.00  0.00     0.021 A 
ATOM     40  N   UNL     1      27.389   6.602  57.468  1.00  0.00    -0.264 NA
ATOM     41  C   UNL     1      27.292   6.462  56.136  1.00  0.00     0.111 A 
ENDBRANCH  34  36
ENDBRANCH  28  30
ENDBRANCH   6  28
TORSDOF 7
ENDMDL
