MODEL 1
REMARK VINA RESULT:   -14.415      0.000      0.000
REMARK INTER + INTRA:         -17.669
REMARK INTER:                 -16.503
REMARK INTRA:                  -1.166
REMARK CONF_INDEPENDENT:        2.088
REMARK UNBOUND:                -1.166
REMARK SMILES Cc1cn(-c2cc(NC(=O)c3ccc(C)c(Nc4nccc(-c5cccnc5)n4)c3)cc(C(F)(F)F)c2)cn1
REMARK SMILES IDX 11 1 12 2 13 3 14 4 15 5 16 6 30 7 9 8 10 9 8 10 7 12 6 13
REMARK SMILES IDX 31 14 5 15 32 16 37 17 4 18 3 19 38 20 2 21 39 22 1 23 33 24
REMARK SMILES IDX 34 25 35 26 36 27 17 28 18 30 19 31 29 32 20 33 22 34 21 35
REMARK SMILES IDX 23 36 24 37 28 38 25 39 27 40 26 41
REMARK H PARENT 8 11 17 29
ROOT
ATOM      1  C   UNL     1      27.955   1.693  53.078  1.00  0.00     0.042 A 
ATOM      2  C   UNL     1      27.650   1.151  54.335  1.00  0.00     0.014 A 
ATOM      3  C   UNL     1      28.357   0.063  54.848  1.00  0.00     0.006 A 
ATOM      4  C   UNL     1      29.332  -0.578  54.101  1.00  0.00    -0.027 A 
ATOM      5  C   UNL     1      30.090  -1.769  54.670  1.00  0.00     0.046 C 
ATOM      6  C   UNL     1      29.568  -0.109  52.809  1.00  0.00     0.045 A 
ATOM      7  C   UNL     1      28.865   1.000  52.322  1.00  0.00     0.040 A 
ENDROOT
BRANCH   1   8
ATOM      8  C   UNL     1      27.180   2.756  52.407  1.00  0.00     0.255 C 
ATOM      9  O   UNL     1      27.486   2.974  51.260  1.00  0.00    -0.269 OA
ATOM     10  N   UNL     1      26.078   3.177  53.045  1.00  0.00    -0.322 N 
ATOM     11  H   UNL     1      25.896   2.778  53.977  1.00  0.00     0.170 HD
BRANCH  10  12
ATOM     12  C   UNL     1      25.160   4.102  52.564  1.00  0.00     0.044 A 
ATOM     13  C   UNL     1      24.232   4.726  53.435  1.00  0.00     0.052 A 
ATOM     14  C   UNL     1      25.052   4.353  51.179  1.00  0.00     0.039 A 
ATOM     15  C   UNL     1      23.312   5.666  52.962  1.00  0.00     0.049 A 
ATOM     16  C   UNL     1      24.128   5.327  50.702  1.00  0.00     0.060 A 
ATOM     17  C   UNL     1      23.252   5.940  51.600  1.00  0.00     0.039 A 
BRANCH  15  18
ATOM     18  N   UNL     1      22.417   6.320  53.823  1.00  0.00    -0.306 N 
ATOM     19  C   UNL     1      22.139   6.055  55.162  1.00  0.00     0.116 A 
ATOM     20  C   UNL     1      21.562   7.296  53.498  1.00  0.00     0.204 A 
ATOM     21  C   UNL     1      21.148   6.882  55.559  1.00  0.00     0.056 A 
ATOM     22  N   UNL     1      20.823   7.674  54.512  1.00  0.00    -0.242 NA
ATOM     23  C   UNL     1      20.516   6.987  56.926  1.00  0.00     0.068 C 
ENDBRANCH  15  18
BRANCH  16  24
ATOM     24  C   UNL     1      24.076   5.615  49.237  1.00  0.00     0.416 C 
ATOM     25  F   UNL     1      24.900   6.597  48.820  1.00  0.00    -0.166 F 
ATOM     26  F   UNL     1      24.507   4.577  48.531  1.00  0.00    -0.166 F 
ATOM     27  F   UNL     1      22.858   6.038  48.841  1.00  0.00    -0.166 F 
ENDBRANCH  16  24
ENDBRANCH  10  12
ENDBRANCH   1   8
BRANCH   6  28
ATOM     28  N   UNL     1      30.655  -0.633  52.098  1.00  0.00    -0.324 N 
ATOM     29  H   UNL     1      30.528  -1.449  51.483  1.00  0.00     0.170 HD
BRANCH  28  30
ATOM     30  C   UNL     1      31.912  -0.040  52.230  1.00  0.00     0.227 A 
ATOM     31  N   UNL     1      32.290   0.936  53.045  1.00  0.00    -0.221 NA
ATOM     32  N   UNL     1      32.726  -0.587  51.290  1.00  0.00    -0.213 NA
ATOM     33  C   UNL     1      33.565   1.356  52.936  1.00  0.00     0.117 A 
ATOM     34  C   UNL     1      33.974  -0.114  51.198  1.00  0.00     0.077 A 
ATOM     35  C   UNL     1      34.412   0.865  52.018  1.00  0.00     0.049 A 
BRANCH  34  36
ATOM     36  C   UNL     1      34.835  -0.770  50.179  1.00  0.00     0.019 A 
ATOM     37  C   UNL     1      36.171  -0.383  49.987  1.00  0.00     0.013 A 
ATOM     38  C   UNL     1      34.322  -1.796  49.362  1.00  0.00     0.121 A 
ATOM     39  C   UNL     1      36.921  -1.014  49.002  1.00  0.00     0.021 A 
ATOM     40  N   UNL     1      35.038  -2.402  48.407  1.00  0.00    -0.264 NA
ATOM     41  C   UNL     1      36.320  -2.030  48.261  1.00  0.00     0.111 A 
ENDBRANCH  34  36
ENDBRANCH  28  30
ENDBRANCH   6  28
TORSDOF 7
ENDMDL
MODEL 2
REMARK VINA RESULT:   -13.343      2.290      3.572
REMARK INTER + INTRA:         -16.669
REMARK INTER:                 -15.431
REMARK INTRA:                  -1.237
REMARK CONF_INDEPENDENT:        2.088
REMARK UNBOUND:                -1.237
REMARK SMILES Cc1cn(-c2cc(NC(=O)c3ccc(C)c(Nc4nccc(-c5cccnc5)n4)c3)cc(C(F)(F)F)c2)cn1
REMARK SMILES IDX 11 1 12 2 13 3 14 4 15 5 16 6 30 7 9 8 10 9 8 10 7 12 6 13
REMARK SMILES IDX 31 14 5 15 32 16 37 17 4 18 3 19 38 20 2 21 39 22 1 23 33 24
REMARK SMILES IDX 34 25 35 26 36 27 17 28 18 30 19 31 29 32 20 33 22 34 21 35
REMARK SMILES IDX 23 36 24 37 28 38 25 39 27 40 26 41
REMARK H PARENT 8 11 17 29
ROOT
ATOM      1  C   UNL     1      28.182   1.600  53.449  1.00  0.00     0.042 A 
ATOM      2  C   UNL     1      27.862   0.923  54.635  1.00  0.00     0.014 A 
ATOM      3  C   UNL     1      28.518  -0.253  55.000  1.00  0.00     0.006 A 
ATOM      4  C   UNL     1      29.452  -0.844  54.164  1.00  0.00    -0.027 A 
ATOM      5  C   UNL     1      30.154  -2.132  54.572  1.00  0.00     0.046 C 
ATOM      6  C   UNL     1      29.699  -0.232  52.937  1.00  0.00     0.045 A 
ATOM      7  C   UNL     1      29.049   0.962  52.600  1.00  0.00     0.040 A 
ENDROOT
BRANCH   1   8
ATOM      8  C   UNL     1      27.456   2.774  52.925  1.00  0.00     0.255 C 
ATOM      9  O   UNL     1      27.875   3.222  51.886  1.00  0.00    -0.269 OA
ATOM     10  N   UNL     1      26.282   3.053  53.511  1.00  0.00    -0.322 N 
ATOM     11  H   UNL     1      26.012   2.472  54.318  1.00  0.00     0.170 HD
BRANCH  10  12
ATOM     12  C   UNL     1      25.397   4.053  53.130  1.00  0.00     0.044 A 
ATOM     13  C   UNL     1      25.057   4.243  51.767  1.00  0.00     0.052 A 
ATOM     14  C   UNL     1      24.910   4.980  54.077  1.00  0.00     0.039 A 
ATOM     15  C   UNL     1      24.160   5.240  51.375  1.00  0.00     0.049 A 
ATOM     16  C   UNL     1      23.979   5.982  53.678  1.00  0.00     0.060 A 
ATOM     17  C   UNL     1      23.647   6.114  52.328  1.00  0.00     0.039 A 
BRANCH  15  18
ATOM     18  N   UNL     1      23.785   5.409  50.033  1.00  0.00    -0.306 N 
ATOM     19  C   UNL     1      22.515   5.614  49.498  1.00  0.00     0.116 A 
ATOM     20  C   UNL     1      24.580   5.315  48.961  1.00  0.00     0.204 A 
ATOM     21  C   UNL     1      22.622   5.635  48.152  1.00  0.00     0.056 A 
ATOM     22  N   UNL     1      23.927   5.478  47.837  1.00  0.00    -0.242 NA
ATOM     23  C   UNL     1      21.525   5.847  47.136  1.00  0.00     0.068 C 
ENDBRANCH  15  18
BRANCH  16  24
ATOM     24  C   UNL     1      23.432   6.912  54.713  1.00  0.00     0.416 C 
ATOM     25  F   UNL     1      24.331   7.347  55.619  1.00  0.00    -0.166 F 
ATOM     26  F   UNL     1      23.024   8.049  54.163  1.00  0.00    -0.166 F 
ATOM     27  F   UNL     1      22.478   6.333  55.470  1.00  0.00    -0.166 F 
ENDBRANCH  16  24
ENDBRANCH  10  12
ENDBRANCH   1   8
BRANCH   6  28
ATOM     28  N   UNL     1      30.752  -0.717  52.150  1.00  0.00    -0.324 N 
ATOM     29  H   UNL     1      30.587  -1.474  51.471  1.00  0.00     0.170 HD
BRANCH  28  30
ATOM     30  C   UNL     1      32.027  -0.165  52.293  1.00  0.00     0.227 A 
ATOM     31  N   UNL     1      32.432   0.791  53.119  1.00  0.00    -0.221 NA
ATOM     32  N   UNL     1      32.827  -0.730  51.352  1.00  0.00    -0.213 NA
ATOM     33  C   UNL     1      33.720   1.170  53.019  1.00  0.00     0.117 A 
ATOM     34  C   UNL     1      34.091  -0.297  51.271  1.00  0.00     0.077 A 
ATOM     35  C   UNL     1      34.556   0.661  52.101  1.00  0.00     0.049 A 
BRANCH  34  36
ATOM     36  C   UNL     1      34.936  -0.971  50.250  1.00  0.00     0.019 A 
ATOM     37  C   UNL     1      36.204  -0.478  49.903  1.00  0.00     0.013 A 
ATOM     38  C   UNL     1      34.473  -2.124  49.587  1.00  0.00     0.121 A 
ATOM     39  C   UNL     1      36.938  -1.135  48.924  1.00  0.00     0.021 A 
ATOM     40  N   UNL     1      35.173  -2.757  48.636  1.00  0.00    -0.264 NA
ATOM     41  C   UNL     1      36.393  -2.279  48.343  1.00  0.00     0.111 A 
ENDBRANCH  34  36
ENDBRANCH  28  30
ENDBRANCH   6  28
TORSDOF 7
ENDMDL
MODEL 3
REMARK VINA RESULT:   -12.321      1.289      1.842
REMARK INTER + INTRA:         -15.818
REMARK INTER:                 -14.409
REMARK INTRA:                  -1.409
REMARK CONF_INDEPENDENT:        2.088
REMARK UNBOUND:                -1.409
REMARK SMILES Cc1cn(-c2cc(NC(=O)c3ccc(C)c(Nc4nccc(-c5cccnc5)n4)c3)cc(C(F)(F)F)c2)cn1
REMARK SMILES IDX 11 1 12 2 13 3 14 4 15 5 16 6 30 7 9 8 10 9 8 10 7 12 6 13
REMARK SMILES IDX 31 14 5 15 32 16 37 17 4 18 3 19 38 20 2 21 39 22 1 23 33 24
REMARK SMILES IDX 34 25 35 26 36 27 17 28 18 30 19 31 29 32 20 33 22 34 21 35
REMARK SMILES IDX 23 36 24 37 28 38 25 39 27 40 26 41
REMARK H PARENT 8 11 17 29
ROOT
ATOM      1  C   UNL     1      28.014   1.920  53.049  1.00  0.00     0.042 A 
ATOM      2  C   UNL     1      27.653   0.598  53.351  1.00  0.00     0.014 A 
ATOM      3  C   UNL     1      28.535  -0.265  54.004  1.00  0.00     0.006 A 
ATOM      4  C   UNL     1      29.830   0.124  54.305  1.00  0.00    -0.027 A 
ATOM      5  C   UNL     1      30.783  -0.830  55.011  1.00  0.00     0.046 C 
ATOM      6  C   UNL     1      30.228   1.402  53.915  1.00  0.00     0.045 A 
ATOM      7  C   UNL     1      29.320   2.261  53.283  1.00  0.00     0.040 A 
ENDROOT
BRANCH   1   8
ATOM      8  C   UNL     1      27.196   2.856  52.253  1.00  0.00     0.255 C 
ATOM      9  O   UNL     1      27.408   2.847  51.065  1.00  0.00    -0.269 OA
ATOM     10  N   UNL     1      26.154   3.416  52.885  1.00  0.00    -0.322 N 
ATOM     11  H   UNL     1      26.046   3.204  53.886  1.00  0.00     0.170 HD
BRANCH  10  12
ATOM     12  C   UNL     1      25.209   4.257  52.311  1.00  0.00     0.044 A 
ATOM     13  C   UNL     1      24.367   5.063  53.118  1.00  0.00     0.052 A 
ATOM     14  C   UNL     1      24.982   4.239  50.918  1.00  0.00     0.039 A 
ATOM     15  C   UNL     1      23.420   5.919  52.551  1.00  0.00     0.049 A 
ATOM     16  C   UNL     1      24.032   5.128  50.340  1.00  0.00     0.060 A 
ATOM     17  C   UNL     1      23.244   5.928  51.171  1.00  0.00     0.039 A 
BRANCH  15  18
ATOM     18  N   UNL     1      22.611   6.751  53.339  1.00  0.00    -0.306 N 
ATOM     19  C   UNL     1      21.944   6.455  54.526  1.00  0.00     0.116 A 
ATOM     20  C   UNL     1      22.233   8.004  53.056  1.00  0.00     0.204 A 
ATOM     21  C   UNL     1      21.217   7.536  54.884  1.00  0.00     0.056 A 
ATOM     22  N   UNL     1      21.438   8.506  53.968  1.00  0.00    -0.242 NA
ATOM     23  C   UNL     1      20.344   7.707  56.103  1.00  0.00     0.068 C 
ENDBRANCH  15  18
BRANCH  16  24
ATOM     24  C   UNL     1      23.856   5.130  48.856  1.00  0.00     0.416 C 
ATOM     25  F   UNL     1      24.885   5.653  48.160  1.00  0.00    -0.166 F 
ATOM     26  F   UNL     1      23.803   3.892  48.380  1.00  0.00    -0.166 F 
ATOM     27  F   UNL     1      22.803   5.878  48.466  1.00  0.00    -0.166 F 
ENDBRANCH  16  24
ENDBRANCH  10  12
ENDBRANCH   1   8
BRANCH   6  28
ATOM     28  N   UNL     1      31.473   1.875  54.351  1.00  0.00    -0.324 N 
ATOM     29  H   UNL     1      31.527   2.596  55.084  1.00  0.00     0.170 HD
BRANCH  28  30
ATOM     30  C   UNL     1      32.640   1.360  53.783  1.00  0.00     0.227 A 
ATOM     31  N   UNL     1      33.900   1.552  54.152  1.00  0.00    -0.221 NA
ATOM     32  N   UNL     1      32.284   0.651  52.681  1.00  0.00    -0.213 NA
ATOM     33  C   UNL     1      34.848   0.967  53.396  1.00  0.00     0.117 A 
ATOM     34  C   UNL     1      33.263   0.115  51.943  1.00  0.00     0.077 A 
ATOM     35  C   UNL     1      34.560   0.267  52.288  1.00  0.00     0.049 A 
BRANCH  34  36
ATOM     36  C   UNL     1      32.820  -0.681  50.769  1.00  0.00     0.019 A 
ATOM     37  C   UNL     1      31.459  -0.879  50.485  1.00  0.00     0.013 A 
ATOM     38  C   UNL     1      33.765  -1.275  49.910  1.00  0.00     0.121 A 
ATOM     39  C   UNL     1      31.104  -1.653  49.388  1.00  0.00     0.021 A 
ATOM     40  N   UNL     1      33.429  -2.029  48.855  1.00  0.00    -0.264 NA
ATOM     41  C   UNL     1      32.121  -2.181  48.593  1.00  0.00     0.111 A 
ENDBRANCH  34  36
ENDBRANCH  28  30
ENDBRANCH   6  28
TORSDOF 7
ENDMDL
MODEL 4
REMARK VINA RESULT:   -11.898      1.622      3.696
REMARK INTER + INTRA:         -15.560
REMARK INTER:                 -13.986
REMARK INTRA:                  -1.574
REMARK CONF_INDEPENDENT:        2.088
REMARK UNBOUND:                -1.574
REMARK SMILES Cc1cn(-c2cc(NC(=O)c3ccc(C)c(Nc4nccc(-c5cccnc5)n4)c3)cc(C(F)(F)F)c2)cn1
REMARK SMILES IDX 11 1 12 2 13 3 14 4 15 5 16 6 30 7 9 8 10 9 8 10 7 12 6 13
REMARK SMILES IDX 31 14 5 15 32 16 37 17 4 18 3 19 38 20 2 21 39 22 1 23 33 24
REMARK SMILES IDX 34 25 35 26 36 27 17 28 18 30 19 31 29 32 20 33 22 34 21 35
REMARK SMILES IDX 23 36 24 37 28 38 25 39 27 40 26 41
REMARK H PARENT 8 11 17 29
ROOT
ATOM      1  C   UNL     1      27.697   1.614  53.012  1.00  0.00     0.042 A 
ATOM      2  C   UNL     1      27.401   0.952  54.212  1.00  0.00     0.014 A 
ATOM      3  C   UNL     1      28.121  -0.172  54.619  1.00  0.00     0.006 A 
ATOM      4  C   UNL     1      29.102  -0.727  53.813  1.00  0.00    -0.027 A 
ATOM      5  C   UNL     1      29.875  -1.958  54.266  1.00  0.00     0.046 C 
ATOM      6  C   UNL     1      29.330  -0.134  52.572  1.00  0.00     0.045 A 
ATOM      7  C   UNL     1      28.614   1.008  52.193  1.00  0.00     0.040 A 
ENDROOT
BRANCH   1   8
ATOM      8  C   UNL     1      26.908   2.727  52.446  1.00  0.00     0.255 C 
ATOM      9  O   UNL     1      27.193   3.041  51.316  1.00  0.00    -0.269 OA
ATOM     10  N   UNL     1      25.817   3.090  53.137  1.00  0.00    -0.322 N 
ATOM     11  H   UNL     1      25.652   2.613  54.035  1.00  0.00     0.170 HD
BRANCH  10  12
ATOM     12  C   UNL     1      24.889   4.049  52.751  1.00  0.00     0.044 A 
ATOM     13  C   UNL     1      24.004   4.625  53.696  1.00  0.00     0.052 A 
ATOM     14  C   UNL     1      24.726   4.384  51.389  1.00  0.00     0.039 A 
ATOM     15  C   UNL     1      23.074   5.598  53.319  1.00  0.00     0.049 A 
ATOM     16  C   UNL     1      23.794   5.392  51.011  1.00  0.00     0.060 A 
ATOM     17  C   UNL     1      22.960   5.956  51.980  1.00  0.00     0.039 A 
BRANCH  15  18
ATOM     18  N   UNL     1      22.221   6.205  54.254  1.00  0.00    -0.306 N 
ATOM     19  C   UNL     1      21.972   7.560  54.462  1.00  0.00     0.116 A 
ATOM     20  C   UNL     1      21.526   5.592  55.220  1.00  0.00     0.204 A 
ATOM     21  C   UNL     1      21.148   7.679  55.525  1.00  0.00     0.056 A 
ATOM     22  N   UNL     1      20.854   6.436  55.965  1.00  0.00    -0.242 NA
ATOM     23  C   UNL     1      20.580   8.944  56.123  1.00  0.00     0.068 C 
ENDBRANCH  15  18
BRANCH  16  24
ATOM     24  C   UNL     1      23.685   5.770  49.570  1.00  0.00     0.416 C 
ATOM     25  F   UNL     1      22.426   5.942  49.119  1.00  0.00    -0.166 F 
ATOM     26  F   UNL     1      24.222   6.963  49.347  1.00  0.00    -0.166 F 
ATOM     27  F   UNL     1      24.183   4.820  48.751  1.00  0.00    -0.166 F 
ENDBRANCH  16  24
ENDBRANCH  10  12
ENDBRANCH   1   8
BRANCH   6  28
ATOM     28  N   UNL     1      30.422  -0.575  51.813  1.00  0.00    -0.324 N 
ATOM     29  H   UNL     1      30.300  -1.318  51.111  1.00  0.00     0.170 HD
BRANCH  28  30
ATOM     30  C   UNL     1      31.677   0.002  52.017  1.00  0.00     0.227 A 
ATOM     31  N   UNL     1      32.828  -0.274  51.415  1.00  0.00    -0.221 NA
ATOM     32  N   UNL     1      31.562   0.890  53.037  1.00  0.00    -0.213 NA
ATOM     33  C   UNL     1      33.910   0.407  51.837  1.00  0.00     0.117 A 
ATOM     34  C   UNL     1      32.671   1.520  53.442  1.00  0.00     0.077 A 
ATOM     35  C   UNL     1      33.862   1.286  52.850  1.00  0.00     0.049 A 
BRANCH  34  36
ATOM     36  C   UNL     1      32.485   2.507  54.537  1.00  0.00     0.019 A 
ATOM     37  C   UNL     1      33.360   3.592  54.705  1.00  0.00     0.013 A 
ATOM     38  C   UNL     1      31.424   2.369  55.453  1.00  0.00     0.121 A 
ATOM     39  C   UNL     1      33.153   4.470  55.762  1.00  0.00     0.021 A 
ATOM     40  N   UNL     1      31.223   3.207  56.478  1.00  0.00    -0.264 NA
ATOM     41  C   UNL     1      32.060   4.250  56.600  1.00  0.00     0.111 A 
ENDBRANCH  34  36
ENDBRANCH  28  30
ENDBRANCH   6  28
TORSDOF 7
ENDMDL
MODEL 5
REMARK VINA RESULT:   -11.873      3.140      4.279
REMARK INTER + INTRA:         -14.990
REMARK INTER:                 -13.961
REMARK INTRA:                  -1.029
REMARK CONF_INDEPENDENT:        2.088
REMARK UNBOUND:                -1.029
REMARK SMILES Cc1cn(-c2cc(NC(=O)c3ccc(C)c(Nc4nccc(-c5cccnc5)n4)c3)cc(C(F)(F)F)c2)cn1
REMARK SMILES IDX 11 1 12 2 13 3 14 4 15 5 16 6 30 7 9 8 10 9 8 10 7 12 6 13
REMARK SMILES IDX 31 14 5 15 32 16 37 17 4 18 3 19 38 20 2 21 39 22 1 23 33 24
REMARK SMILES IDX 34 25 35 26 36 27 17 28 18 30 19 31 29 32 20 33 22 34 21 35
REMARK SMILES IDX 23 36 24 37 28 38 25 39 27 40 26 41
REMARK H PARENT 8 11 17 29
ROOT
ATOM      1  C   UNL     1      28.143   2.643  52.642  1.00  0.00     0.042 A 
ATOM      2  C   UNL     1      28.008   3.222  53.912  1.00  0.00     0.014 A 
ATOM      3  C   UNL     1      29.036   3.156  54.854  1.00  0.00     0.006 A 
ATOM      4  C   UNL     1      30.197   2.445  54.601  1.00  0.00    -0.027 A 
ATOM      5  C   UNL     1      31.307   2.375  55.641  1.00  0.00     0.046 C 
ATOM      6  C   UNL     1      30.295   1.780  53.380  1.00  0.00     0.045 A 
ATOM      7  C   UNL     1      29.262   1.879  52.439  1.00  0.00     0.040 A 
ENDROOT
BRANCH   1   8
ATOM      8  C   UNL     1      27.066   2.555  51.636  1.00  0.00     0.255 C 
ATOM      9  O   UNL     1      26.797   1.440  51.261  1.00  0.00    -0.269 OA
ATOM     10  N   UNL     1      26.345   3.670  51.442  1.00  0.00    -0.322 N 
ATOM     11  H   UNL     1      26.640   4.512  51.956  1.00  0.00     0.170 HD
BRANCH  10  12
ATOM     12  C   UNL     1      25.239   3.792  50.611  1.00  0.00     0.044 A 
ATOM     13  C   UNL     1      24.498   2.651  50.214  1.00  0.00     0.052 A 
ATOM     14  C   UNL     1      24.900   5.040  50.045  1.00  0.00     0.039 A 
ATOM     15  C   UNL     1      23.378   2.764  49.386  1.00  0.00     0.049 A 
ATOM     16  C   UNL     1      23.745   5.157  49.220  1.00  0.00     0.060 A 
ATOM     17  C   UNL     1      23.025   4.011  48.878  1.00  0.00     0.039 A 
BRANCH  15  18
ATOM     18  N   UNL     1      22.613   1.646  49.022  1.00  0.00    -0.306 N 
ATOM     19  C   UNL     1      22.250   0.544  49.794  1.00  0.00     0.116 A 
ATOM     20  C   UNL     1      22.142   1.360  47.802  1.00  0.00     0.204 A 
ATOM     21  C   UNL     1      21.585  -0.326  49.002  1.00  0.00     0.056 A 
ATOM     22  N   UNL     1      21.500   0.218  47.768  1.00  0.00    -0.242 NA
ATOM     23  C   UNL     1      20.978  -1.653  49.386  1.00  0.00     0.068 C 
ENDBRANCH  15  18
BRANCH  16  24
ATOM     24  C   UNL     1      23.375   6.502  48.684  1.00  0.00     0.416 C 
ATOM     25  F   UNL     1      22.057   6.688  48.474  1.00  0.00    -0.166 F 
ATOM     26  F   UNL     1      23.651   7.459  49.563  1.00  0.00    -0.166 F 
ATOM     27  F   UNL     1      23.922   6.740  47.474  1.00  0.00    -0.166 F 
ENDBRANCH  16  24
ENDBRANCH  10  12
ENDBRANCH   1   8
BRANCH   6  28
ATOM     28  N   UNL     1      31.519   1.192  53.037  1.00  0.00    -0.324 N 
ATOM     29  H   UNL     1      32.370   1.413  53.574  1.00  0.00     0.170 HD
BRANCH  28  30
ATOM     30  C   UNL     1      31.577   0.305  51.960  1.00  0.00     0.227 A 
ATOM     31  N   UNL     1      30.595  -0.391  51.401  1.00  0.00    -0.221 NA
ATOM     32  N   UNL     1      32.879   0.190  51.591  1.00  0.00    -0.213 NA
ATOM     33  C   UNL     1      30.936  -1.216  50.393  1.00  0.00     0.117 A 
ATOM     34  C   UNL     1      33.172  -0.666  50.606  1.00  0.00     0.077 A 
ATOM     35  C   UNL     1      32.206  -1.384  49.993  1.00  0.00     0.049 A 
BRANCH  34  36
ATOM     36  C   UNL     1      34.605  -0.730  50.215  1.00  0.00     0.019 A 
ATOM     37  C   UNL     1      35.024  -1.420  49.066  1.00  0.00     0.013 A 
ATOM     38  C   UNL     1      35.590  -0.105  51.005  1.00  0.00     0.121 A 
ATOM     39  C   UNL     1      36.379  -1.466  48.764  1.00  0.00     0.021 A 
ATOM     40  N   UNL     1      36.898  -0.153  50.723  1.00  0.00    -0.264 NA
ATOM     41  C   UNL     1      37.269  -0.798  49.605  1.00  0.00     0.111 A 
ENDBRANCH  34  36
ENDBRANCH  28  30
ENDBRANCH   6  28
TORSDOF 7
ENDMDL
MODEL 6
REMARK VINA RESULT:   -11.509      4.128     11.226
REMARK INTER + INTRA:         -14.772
REMARK INTER:                 -13.598
REMARK INTRA:                  -1.175
REMARK CONF_INDEPENDENT:        2.088
REMARK UNBOUND:                -1.175
REMARK SMILES Cc1cn(-c2cc(NC(=O)c3ccc(C)c(Nc4nccc(-c5cccnc5)n4)c3)cc(C(F)(F)F)c2)cn1
REMARK SMILES IDX 11 1 12 2 13 3 14 4 15 5 16 6 30 7 9 8 10 9 8 10 7 12 6 13
REMARK SMILES IDX 31 14 5 15 32 16 37 17 4 18 3 19 38 20 2 21 39 22 1 23 33 24
REMARK SMILES IDX 34 25 35 26 36 27 17 28 18 30 19 31 29 32 20 33 22 34 21 35
REMARK SMILES IDX 23 36 24 37 28 38 25 39 27 40 26 41
REMARK H PARENT 8 11 17 29
ROOT
ATOM      1  C   UNL     1      25.857   3.847  52.024  1.00  0.00     0.042 A 
ATOM      2  C   UNL     1      25.260   4.355  50.860  1.00  0.00     0.014 A 
ATOM      3  C   UNL     1      24.134   5.178  50.920  1.00  0.00     0.006 A 
ATOM      4  C   UNL     1      23.512   5.457  52.127  1.00  0.00    -0.027 A 
ATOM      5  C   UNL     1      22.281   6.350  52.177  1.00  0.00     0.046 C 
ATOM      6  C   UNL     1      24.040   4.871  53.276  1.00  0.00     0.045 A 
ATOM      7  C   UNL     1      25.185   4.068  53.197  1.00  0.00     0.040 A 
ENDROOT
BRANCH   1   8
ATOM      8  C   UNL     1      26.966   2.873  52.046  1.00  0.00     0.255 C 
ATOM      9  O   UNL     1      27.664   2.859  51.062  1.00  0.00    -0.269 OA
ATOM     10  N   UNL     1      27.228   2.302  53.232  1.00  0.00    -0.322 N 
ATOM     11  H   UNL     1      26.597   2.535  54.012  1.00  0.00     0.170 HD
BRANCH  10  12
ATOM     12  C   UNL     1      28.270   1.425  53.502  1.00  0.00     0.044 A 
ATOM     13  C   UNL     1      29.572   1.664  52.996  1.00  0.00     0.052 A 
ATOM     14  C   UNL     1      28.030   0.213  54.187  1.00  0.00     0.039 A 
ATOM     15  C   UNL     1      30.630   0.793  53.271  1.00  0.00     0.049 A 
ATOM     16  C   UNL     1      29.113  -0.662  54.485  1.00  0.00     0.060 A 
ATOM     17  C   UNL     1      30.388  -0.372  53.992  1.00  0.00     0.039 A 
BRANCH  15  18
ATOM     18  N   UNL     1      31.931   1.043  52.810  1.00  0.00    -0.306 N 
ATOM     19  C   UNL     1      32.550   0.588  51.648  1.00  0.00     0.116 A 
ATOM     20  C   UNL     1      32.894   1.712  53.454  1.00  0.00     0.204 A 
ATOM     21  C   UNL     1      33.834   1.010  51.660  1.00  0.00     0.056 A 
ATOM     22  N   UNL     1      34.020   1.739  52.783  1.00  0.00    -0.242 NA
ATOM     23  C   UNL     1      34.896   0.785  50.612  1.00  0.00     0.068 C 
ENDBRANCH  15  18
BRANCH  16  24
ATOM     24  C   UNL     1      28.841  -1.908  55.263  1.00  0.00     0.416 C 
ATOM     25  F   UNL     1      27.980  -2.767  54.680  1.00  0.00    -0.166 F 
ATOM     26  F   UNL     1      29.936  -2.650  55.375  1.00  0.00    -0.166 F 
ATOM     27  F   UNL     1      28.267  -1.652  56.457  1.00  0.00    -0.166 F 
ENDBRANCH  16  24
ENDBRANCH  10  12
ENDBRANCH   1   8
BRANCH   6  28
ATOM     28  N   UNL     1      23.530   5.266  54.520  1.00  0.00    -0.324 N 
ATOM     29  H   UNL     1      22.838   4.680  55.008  1.00  0.00     0.170 HD
BRANCH  28  30
ATOM     30  C   UNL     1      23.969   6.462  55.093  1.00  0.00     0.227 A 
ATOM     31  N   UNL     1      23.970   7.683  54.573  1.00  0.00    -0.221 NA
ATOM     32  N   UNL     1      24.499   6.166  56.307  1.00  0.00    -0.213 NA
ATOM     33  C   UNL     1      24.497   8.663  55.332  1.00  0.00     0.117 A 
ATOM     34  C   UNL     1      25.040   7.168  57.011  1.00  0.00     0.077 A 
ATOM     35  C   UNL     1      25.049   8.431  56.533  1.00  0.00     0.049 A 
BRANCH  34  36
ATOM     36  C   UNL     1      25.575   6.798  58.347  1.00  0.00     0.019 A 
ATOM     37  C   UNL     1      24.731   6.373  59.386  1.00  0.00     0.013 A 
ATOM     38  C   UNL     1      26.956   6.881  58.613  1.00  0.00     0.121 A 
ATOM     39  C   UNL     1      25.284   6.065  60.622  1.00  0.00     0.021 A 
ATOM     40  N   UNL     1      27.494   6.594  59.805  1.00  0.00    -0.264 NA
ATOM     41  C   UNL     1      26.666   6.165  60.772  1.00  0.00     0.111 A 
ENDBRANCH  34  36
ENDBRANCH  28  30
ENDBRANCH   6  28
TORSDOF 7
ENDMDL
MODEL 7
REMARK VINA RESULT:   -11.493      2.130      3.130
REMARK INTER + INTRA:         -14.846
REMARK INTER:                 -13.581
REMARK INTRA:                  -1.265
REMARK CONF_INDEPENDENT:        2.088
REMARK UNBOUND:                -1.265
REMARK SMILES Cc1cn(-c2cc(NC(=O)c3ccc(C)c(Nc4nccc(-c5cccnc5)n4)c3)cc(C(F)(F)F)c2)cn1
REMARK SMILES IDX 11 1 12 2 13 3 14 4 15 5 16 6 30 7 9 8 10 9 8 10 7 12 6 13
REMARK SMILES IDX 31 14 5 15 32 16 37 17 4 18 3 19 38 20 2 21 39 22 1 23 33 24
REMARK SMILES IDX 34 25 35 26 36 27 17 28 18 30 19 31 29 32 20 33 22 34 21 35
REMARK SMILES IDX 23 36 24 37 28 38 25 39 27 40 26 41
REMARK H PARENT 8 11 17 29
ROOT
ATOM      1  C   UNL     1      26.975   2.415  52.374  1.00  0.00     0.042 A 
ATOM      2  C   UNL     1      27.150   1.050  52.099  1.00  0.00     0.014 A 
ATOM      3  C   UNL     1      27.936   0.238  52.917  1.00  0.00     0.006 A 
ATOM      4  C   UNL     1      28.642   0.765  53.987  1.00  0.00    -0.027 A 
ATOM      5  C   UNL     1      29.501  -0.132  54.867  1.00  0.00     0.046 C 
ATOM      6  C   UNL     1      28.555   2.139  54.204  1.00  0.00     0.045 A 
ATOM      7  C   UNL     1      27.741   2.933  53.386  1.00  0.00     0.040 A 
ENDROOT
BRANCH   1   8
ATOM      8  C   UNL     1      26.270   3.369  51.497  1.00  0.00     0.255 C 
ATOM      9  O   UNL     1      26.459   3.223  50.314  1.00  0.00    -0.269 OA
ATOM     10  N   UNL     1      25.318   4.115  52.078  1.00  0.00    -0.322 N 
ATOM     11  H   UNL     1      25.200   4.013  53.096  1.00  0.00     0.170 HD
BRANCH  10  12
ATOM     12  C   UNL     1      24.477   5.012  51.432  1.00  0.00     0.044 A 
ATOM     13  C   UNL     1      23.812   6.034  52.154  1.00  0.00     0.052 A 
ATOM     14  C   UNL     1      24.172   4.853  50.063  1.00  0.00     0.039 A 
ATOM     15  C   UNL     1      22.971   6.948  51.512  1.00  0.00     0.049 A 
ATOM     16  C   UNL     1      23.333   5.798  49.406  1.00  0.00     0.060 A 
ATOM     17  C   UNL     1      22.721   6.808  50.151  1.00  0.00     0.039 A 
BRANCH  15  18
ATOM     18  N   UNL     1      22.341   7.988  52.211  1.00  0.00    -0.306 N 
ATOM     19  C   UNL     1      21.421   7.910  53.255  1.00  0.00     0.116 A 
ATOM     20  C   UNL     1      22.429   9.297  51.949  1.00  0.00     0.204 A 
ATOM     21  C   UNL     1      21.019   9.164  53.558  1.00  0.00     0.056 A 
ATOM     22  N   UNL     1      21.686  10.020  52.751  1.00  0.00    -0.242 NA
ATOM     23  C   UNL     1      20.047   9.594  54.630  1.00  0.00     0.068 C 
ENDBRANCH  15  18
BRANCH  16  24
ATOM     24  C   UNL     1      23.076   5.639  47.942  1.00  0.00     0.416 C 
ATOM     25  F   UNL     1      23.974   6.241  47.137  1.00  0.00    -0.166 F 
ATOM     26  F   UNL     1      23.184   4.368  47.574  1.00  0.00    -0.166 F 
ATOM     27  F   UNL     1      21.902   6.186  47.566  1.00  0.00    -0.166 F 
ENDBRANCH  16  24
ENDBRANCH  10  12
ENDBRANCH   1   8
BRANCH   6  28
ATOM     28  N   UNL     1      29.126   2.667  55.370  1.00  0.00    -0.324 N 
ATOM     29  H   UNL     1      28.542   2.841  56.200  1.00  0.00     0.170 HD
BRANCH  28  30
ATOM     30  C   UNL     1      30.492   2.954  55.396  1.00  0.00     0.227 A 
ATOM     31  N   UNL     1      31.135   3.874  56.103  1.00  0.00    -0.221 NA
ATOM     32  N   UNL     1      31.098   2.156  54.480  1.00  0.00    -0.213 NA
ATOM     33  C   UNL     1      32.464   3.970  55.906  1.00  0.00     0.117 A 
ATOM     34  C   UNL     1      32.415   2.311  54.295  1.00  0.00     0.077 A 
ATOM     35  C   UNL     1      33.117   3.221  55.003  1.00  0.00     0.049 A 
BRANCH  34  36
ATOM     36  C   UNL     1      33.037   1.391  53.307  1.00  0.00     0.019 A 
ATOM     37  C   UNL     1      32.283   0.789  52.287  1.00  0.00     0.013 A 
ATOM     38  C   UNL     1      34.410   1.085  53.381  1.00  0.00     0.121 A 
ATOM     39  C   UNL     1      32.913  -0.082  51.407  1.00  0.00     0.021 A 
ATOM     40  N   UNL     1      35.021   0.241  52.540  1.00  0.00    -0.264 NA
ATOM     41  C   UNL     1      34.282  -0.301  51.558  1.00  0.00     0.111 A 
ENDBRANCH  34  36
ENDBRANCH  28  30
ENDBRANCH   6  28
TORSDOF 7
ENDMDL
MODEL 8
REMARK VINA RESULT:   -11.156      3.682     12.076
REMARK INTER + INTRA:         -14.461
REMARK INTER:                 -13.244
REMARK INTRA:                  -1.217
REMARK CONF_INDEPENDENT:        2.088
REMARK UNBOUND:                -1.217
REMARK SMILES Cc1cn(-c2cc(NC(=O)c3ccc(C)c(Nc4nccc(-c5cccnc5)n4)c3)cc(C(F)(F)F)c2)cn1
REMARK SMILES IDX 11 1 12 2 13 3 14 4 15 5 16 6 30 7 9 8 10 9 8 10 7 12 6 13
REMARK SMILES IDX 31 14 5 15 32 16 37 17 4 18 3 19 38 20 2 21 39 22 1 23 33 24
REMARK SMILES IDX 34 25 35 26 36 27 17 28 18 30 19 31 29 32 20 33 22 34 21 35
REMARK SMILES IDX 23 36 24 37 28 38 25 39 27 40 26 41
REMARK H PARENT 8 11 17 29
ROOT
ATOM      1  C   UNL     1      26.129   3.498  51.700  1.00  0.00     0.042 A 
ATOM      2  C   UNL     1      25.452   3.764  50.501  1.00  0.00     0.014 A 
ATOM      3  C   UNL     1      24.195   4.371  50.494  1.00  0.00     0.006 A 
ATOM      4  C   UNL     1      23.529   4.657  51.676  1.00  0.00    -0.027 A 
ATOM      5  C   UNL     1      22.155   5.312  51.654  1.00  0.00     0.046 C 
ATOM      6  C   UNL     1      24.152   4.300  52.871  1.00  0.00     0.045 A 
ATOM      7  C   UNL     1      25.424   3.715  52.856  1.00  0.00     0.040 A 
ENDROOT
BRANCH   1   8
ATOM      8  C   UNL     1      27.396   2.749  51.805  1.00  0.00     0.255 C 
ATOM      9  O   UNL     1      28.328   3.220  51.200  1.00  0.00    -0.269 OA
ATOM     10  N   UNL     1      27.442   1.792  52.744  1.00  0.00    -0.322 N 
ATOM     11  H   UNL     1      26.575   1.610  53.268  1.00  0.00     0.170 HD
BRANCH  10  12
ATOM     12  C   UNL     1      28.552   1.024  53.072  1.00  0.00     0.044 A 
ATOM     13  C   UNL     1      29.832   1.334  52.549  1.00  0.00     0.052 A 
ATOM     14  C   UNL     1      28.409  -0.154  53.837  1.00  0.00     0.039 A 
ATOM     15  C   UNL     1      30.956   0.573  52.881  1.00  0.00     0.049 A 
ATOM     16  C   UNL     1      29.559  -0.915  54.193  1.00  0.00     0.060 A 
ATOM     17  C   UNL     1      30.807  -0.556  53.680  1.00  0.00     0.039 A 
BRANCH  15  18
ATOM     18  N   UNL     1      32.235   0.897  52.402  1.00  0.00    -0.306 N 
ATOM     19  C   UNL     1      32.869   0.466  51.238  1.00  0.00     0.116 A 
ATOM     20  C   UNL     1      33.162   1.632  53.027  1.00  0.00     0.204 A 
ATOM     21  C   UNL     1      34.123   0.966  51.231  1.00  0.00     0.056 A 
ATOM     22  N   UNL     1      34.276   1.720  52.343  1.00  0.00    -0.242 NA
ATOM     23  C   UNL     1      35.186   0.794  50.173  1.00  0.00     0.068 C 
ENDBRANCH  15  18
BRANCH  16  24
ATOM     24  C   UNL     1      29.386  -2.124  55.055  1.00  0.00     0.416 C 
ATOM     25  F   UNL     1      28.770  -3.165  54.459  1.00  0.00    -0.166 F 
ATOM     26  F   UNL     1      30.561  -2.650  55.381  1.00  0.00    -0.166 F 
ATOM     27  F   UNL     1      28.614  -1.879  56.134  1.00  0.00    -0.166 F 
ENDBRANCH  16  24
ENDBRANCH  10  12
ENDBRANCH   1   8
BRANCH   6  28
ATOM     28  N   UNL     1      23.576   4.724  54.075  1.00  0.00    -0.324 N 
ATOM     29  H   UNL     1      22.997   4.079  54.630  1.00  0.00     0.170 HD
BRANCH  28  30
ATOM     30  C   UNL     1      23.794   6.031  54.518  1.00  0.00     0.227 A 
ATOM     31  N   UNL     1      24.799   6.507  55.243  1.00  0.00    -0.221 NA
ATOM     32  N   UNL     1      22.725   6.777  54.141  1.00  0.00    -0.213 NA
ATOM     33  C   UNL     1      24.742   7.811  55.572  1.00  0.00     0.117 A 
ATOM     34  C   UNL     1      22.698   8.060  54.520  1.00  0.00     0.077 A 
ATOM     35  C   UNL     1      23.705   8.596  55.243  1.00  0.00     0.049 A 
BRANCH  34  36
ATOM     36  C   UNL     1      21.524   8.843  54.053  1.00  0.00     0.019 A 
ATOM     37  C   UNL     1      20.211   8.457  54.366  1.00  0.00     0.013 A 
ATOM     38  C   UNL     1      21.701   9.997  53.264  1.00  0.00     0.121 A 
ATOM     39  C   UNL     1      19.151   9.213  53.881  1.00  0.00     0.021 A 
ATOM     40  N   UNL     1      20.683  10.725  52.787  1.00  0.00    -0.264 NA
ATOM     41  C   UNL     1      19.439  10.347  53.123  1.00  0.00     0.111 A 
ENDBRANCH  34  36
ENDBRANCH  28  30
ENDBRANCH   6  28
TORSDOF 7
ENDMDL
MODEL 9
REMARK VINA RESULT:   -11.088      1.776      2.658
REMARK INTER + INTRA:         -14.425
REMARK INTER:                 -13.176
REMARK INTRA:                  -1.249
REMARK CONF_INDEPENDENT:        2.088
REMARK UNBOUND:                -1.249
REMARK SMILES Cc1cn(-c2cc(NC(=O)c3ccc(C)c(Nc4nccc(-c5cccnc5)n4)c3)cc(C(F)(F)F)c2)cn1
REMARK SMILES IDX 11 1 12 2 13 3 14 4 15 5 16 6 30 7 9 8 10 9 8 10 7 12 6 13
REMARK SMILES IDX 31 14 5 15 32 16 37 17 4 18 3 19 38 20 2 21 39 22 1 23 33 24
REMARK SMILES IDX 34 25 35 26 36 27 17 28 18 30 19 31 29 32 20 33 22 34 21 35
REMARK SMILES IDX 23 36 24 37 28 38 25 39 27 40 26 41
REMARK H PARENT 8 11 17 29
ROOT
ATOM      1  C   UNL     1      27.048   2.342  52.518  1.00  0.00     0.042 A 
ATOM      2  C   UNL     1      27.151   1.246  51.648  1.00  0.00     0.014 A 
ATOM      3  C   UNL     1      28.074   0.223  51.873  1.00  0.00     0.006 A 
ATOM      4  C   UNL     1      28.982   0.292  52.917  1.00  0.00    -0.027 A 
ATOM      5  C   UNL     1      29.989  -0.827  53.145  1.00  0.00     0.046 C 
ATOM      6  C   UNL     1      28.954   1.428  53.724  1.00  0.00     0.045 A 
ATOM      7  C   UNL     1      28.004   2.432  53.497  1.00  0.00     0.040 A 
ENDROOT
BRANCH   1   8
ATOM      8  C   UNL     1      26.194   3.523  52.289  1.00  0.00     0.255 C 
ATOM      9  O   UNL     1      26.113   3.890  51.142  1.00  0.00    -0.269 OA
ATOM     10  N   UNL     1      25.415   3.898  53.315  1.00  0.00    -0.322 N 
ATOM     11  H   UNL     1      25.522   3.378  54.198  1.00  0.00     0.170 HD
BRANCH  10  12
ATOM     12  C   UNL     1      24.478   4.924  53.296  1.00  0.00     0.044 A 
ATOM     13  C   UNL     1      23.744   5.259  54.460  1.00  0.00     0.052 A 
ATOM     14  C   UNL     1      24.151   5.575  52.087  1.00  0.00     0.039 A 
ATOM     15  C   UNL     1      22.806   6.296  54.454  1.00  0.00     0.049 A 
ATOM     16  C   UNL     1      23.211   6.645  52.087  1.00  0.00     0.060 A 
ATOM     17  C   UNL     1      22.531   6.963  53.265  1.00  0.00     0.039 A 
BRANCH  15  18
ATOM     18  N   UNL     1      22.104   6.663  55.612  1.00  0.00    -0.306 N 
ATOM     19  C   UNL     1      22.602   6.988  56.872  1.00  0.00     0.116 A 
ATOM     20  C   UNL     1      20.775   6.688  55.769  1.00  0.00     0.204 A 
ATOM     21  C   UNL     1      21.555   7.191  57.700  1.00  0.00     0.056 A 
ATOM     22  N   UNL     1      20.420   7.030  56.983  1.00  0.00    -0.242 NA
ATOM     23  C   UNL     1      21.586   7.583  59.158  1.00  0.00     0.068 C 
ENDBRANCH  15  18
BRANCH  16  24
ATOM     24  C   UNL     1      22.928   7.356  50.804  1.00  0.00     0.416 C 
ATOM     25  F   UNL     1      24.013   7.626  50.050  1.00  0.00    -0.166 F 
ATOM     26  F   UNL     1      22.208   6.597  49.986  1.00  0.00    -0.166 F 
ATOM     27  F   UNL     1      22.374   8.570  51.002  1.00  0.00    -0.166 F 
ENDBRANCH  16  24
ENDBRANCH  10  12
ENDBRANCH   1   8
BRANCH   6  28
ATOM     28  N   UNL     1      29.749   1.446  54.877  1.00  0.00    -0.324 N 
ATOM     29  H   UNL     1      29.390   1.057  55.761  1.00  0.00     0.170 HD
BRANCH  28  30
ATOM     30  C   UNL     1      31.031   1.997  54.820  1.00  0.00     0.227 A 
ATOM     31  N   UNL     1      31.528   3.021  55.502  1.00  0.00    -0.221 NA
ATOM     32  N   UNL     1      31.717   1.341  53.849  1.00  0.00    -0.213 NA
ATOM     33  C   UNL     1      32.796   3.378  55.219  1.00  0.00     0.117 A 
ATOM     34  C   UNL     1      32.962   1.752  53.582  1.00  0.00     0.077 A 
ATOM     35  C   UNL     1      33.519   2.778  54.261  1.00  0.00     0.049 A 
BRANCH  34  36
ATOM     36  C   UNL     1      33.683   0.980  52.537  1.00  0.00     0.019 A 
ATOM     37  C   UNL     1      33.055   0.597  51.341  1.00  0.00     0.013 A 
ATOM     38  C   UNL     1      35.025   0.597  52.728  1.00  0.00     0.121 A 
ATOM     39  C   UNL     1      33.771  -0.146  50.410  1.00  0.00     0.021 A 
ATOM     40  N   UNL     1      35.718  -0.126  51.839  1.00  0.00    -0.264 NA
ATOM     41  C   UNL     1      35.101  -0.457  50.693  1.00  0.00     0.111 A 
ENDBRANCH  34  36
ENDBRANCH  28  30
ENDBRANCH   6  28
TORSDOF 7
ENDMDL
MODEL 10
REMARK VINA RESULT:   -10.950      3.875     11.731
REMARK INTER + INTRA:         -14.165
REMARK INTER:                 -13.038
REMARK INTRA:                  -1.127
REMARK CONF_INDEPENDENT:        2.088
REMARK UNBOUND:                -1.127
REMARK SMILES Cc1cn(-c2cc(NC(=O)c3ccc(C)c(Nc4nccc(-c5cccnc5)n4)c3)cc(C(F)(F)F)c2)cn1
REMARK SMILES IDX 11 1 12 2 13 3 14 4 15 5 16 6 30 7 9 8 10 9 8 10 7 12 6 13
REMARK SMILES IDX 31 14 5 15 32 16 37 17 4 18 3 19 38 20 2 21 39 22 1 23 33 24
REMARK SMILES IDX 34 25 35 26 36 27 17 28 18 30 19 31 29 32 20 33 22 34 21 35
REMARK SMILES IDX 23 36 24 37 28 38 25 39 27 40 26 41
REMARK H PARENT 8 11 17 29
ROOT
ATOM      1  C   UNL     1      25.695   3.617  51.862  1.00  0.00     0.042 A 
ATOM      2  C   UNL     1      24.844   3.514  50.752  1.00  0.00     0.014 A 
ATOM      3  C   UNL     1      23.524   3.962  50.803  1.00  0.00     0.006 A 
ATOM      4  C   UNL     1      22.976   4.450  51.979  1.00  0.00    -0.027 A 
ATOM      5  C   UNL     1      21.532   4.928  52.022  1.00  0.00     0.046 C 
ATOM      6  C   UNL     1      23.785   4.459  53.114  1.00  0.00     0.045 A 
ATOM      7  C   UNL     1      25.116   4.028  53.035  1.00  0.00     0.040 A 
ENDROOT
BRANCH   1   8
ATOM      8  C   UNL     1      27.058   3.056  51.936  1.00  0.00     0.255 C 
ATOM      9  O   UNL     1      27.607   2.888  50.874  1.00  0.00    -0.269 OA
ATOM     10  N   UNL     1      27.625   3.034  53.152  1.00  0.00    -0.322 N 
ATOM     11  H   UNL     1      27.044   3.345  53.943  1.00  0.00     0.170 HD
BRANCH  10  12
ATOM     12  C   UNL     1      28.922   2.630  53.440  1.00  0.00     0.044 A 
ATOM     13  C   UNL     1      29.566   1.640  52.658  1.00  0.00     0.052 A 
ATOM     14  C   UNL     1      29.583   3.108  54.593  1.00  0.00     0.039 A 
ATOM     15  C   UNL     1      30.874   1.233  52.934  1.00  0.00     0.049 A 
ATOM     16  C   UNL     1      30.924   2.709  54.860  1.00  0.00     0.060 A 
ATOM     17  C   UNL     1      31.533   1.753  54.044  1.00  0.00     0.039 A 
BRANCH  15  18
ATOM     18  N   UNL     1      31.536   0.285  52.140  1.00  0.00    -0.306 N 
ATOM     19  C   UNL     1      31.156  -0.244  50.908  1.00  0.00     0.116 A 
ATOM     20  C   UNL     1      32.649  -0.388  52.456  1.00  0.00     0.204 A 
ATOM     21  C   UNL     1      32.056  -1.189  50.559  1.00  0.00     0.056 A 
ATOM     22  N   UNL     1      33.000  -1.241  51.525  1.00  0.00    -0.242 NA
ATOM     23  C   UNL     1      32.083  -2.027  49.303  1.00  0.00     0.068 C 
ENDBRANCH  15  18
BRANCH  16  24
ATOM     24  C   UNL     1      31.621   3.278  56.053  1.00  0.00     0.416 C 
ATOM     25  F   UNL     1      31.650   2.472  57.133  1.00  0.00    -0.166 F 
ATOM     26  F   UNL     1      32.914   3.457  55.810  1.00  0.00    -0.166 F 
ATOM     27  F   UNL     1      31.023   4.396  56.513  1.00  0.00    -0.166 F 
ENDBRANCH  16  24
ENDBRANCH  10  12
ENDBRANCH   1   8
BRANCH   6  28
ATOM     28  N   UNL     1      23.309   5.095  54.267  1.00  0.00    -0.324 N 
ATOM     29  H   UNL     1      22.344   4.935  54.588  1.00  0.00     0.170 HD
BRANCH  28  30
ATOM     30  C   UNL     1      24.154   5.948  54.980  1.00  0.00     0.227 A 
ATOM     31  N   UNL     1      25.402   6.306  54.703  1.00  0.00    -0.221 NA
ATOM     32  N   UNL     1      23.503   6.324  56.110  1.00  0.00    -0.213 NA
ATOM     33  C   UNL     1      26.011   7.115  55.590  1.00  0.00     0.117 A 
ATOM     34  C   UNL     1      24.160   7.102  56.977  1.00  0.00     0.077 A 
ATOM     35  C   UNL     1      25.425   7.508  56.732  1.00  0.00     0.049 A 
BRANCH  34  36
ATOM     36  C   UNL     1      23.392   7.514  58.181  1.00  0.00     0.019 A 
ATOM     37  C   UNL     1      23.938   8.381  59.141  1.00  0.00     0.013 A 
ATOM     38  C   UNL     1      22.088   7.028  58.398  1.00  0.00     0.121 A 
ATOM     39  C   UNL     1      23.183   8.712  60.259  1.00  0.00     0.021 A 
ATOM     40  N   UNL     1      21.358   7.337  59.478  1.00  0.00    -0.264 NA
ATOM     41  C   UNL     1      21.895   8.188  60.367  1.00  0.00     0.111 A 
ENDBRANCH  34  36
ENDBRANCH  28  30
ENDBRANCH   6  28
TORSDOF 7
ENDMDL
MODEL 11
REMARK VINA RESULT:   -10.875      4.705      8.340
REMARK INTER + INTRA:         -13.902
REMARK INTER:                 -12.963
REMARK INTRA:                  -0.939
REMARK CONF_INDEPENDENT:        2.088
REMARK UNBOUND:                -0.939
REMARK SMILES Cc1cn(-c2cc(NC(=O)c3ccc(C)c(Nc4nccc(-c5cccnc5)n4)c3)cc(C(F)(F)F)c2)cn1
REMARK SMILES IDX 11 1 12 2 13 3 14 4 15 5 16 6 30 7 9 8 10 9 8 10 7 12 6 13
REMARK SMILES IDX 31 14 5 15 32 16 37 17 4 18 3 19 38 20 2 21 39 22 1 23 33 24
REMARK SMILES IDX 34 25 35 26 36 27 17 28 18 30 19 31 29 32 20 33 22 34 21 35
REMARK SMILES IDX 23 36 24 37 28 38 25 39 27 40 26 41
REMARK H PARENT 8 11 17 29
ROOT
ATOM      1  C   UNL     1      34.487  -0.919  50.897  1.00  0.00     0.042 A 
ATOM      2  C   UNL     1      34.629  -2.168  50.274  1.00  0.00     0.014 A 
ATOM      3  C   UNL     1      35.636  -2.401  49.336  1.00  0.00     0.006 A 
ATOM      4  C   UNL     1      36.481  -1.385  48.921  1.00  0.00    -0.027 A 
ATOM      5  C   UNL     1      37.569  -1.652  47.891  1.00  0.00     0.046 C 
ATOM      6  C   UNL     1      36.278  -0.115  49.460  1.00  0.00     0.045 A 
ATOM      7  C   UNL     1      35.279   0.092  50.419  1.00  0.00     0.040 A 
ENDROOT
BRANCH   1   8
ATOM      8  C   UNL     1      33.380  -0.549  51.801  1.00  0.00     0.255 C 
ATOM      9  O   UNL     1      33.613   0.360  52.560  1.00  0.00    -0.269 OA
ATOM     10  N   UNL     1      32.181  -1.077  51.515  1.00  0.00    -0.322 N 
ATOM     11  H   UNL     1      32.139  -1.747  50.734  1.00  0.00     0.170 HD
BRANCH  10  12
ATOM     12  C   UNL     1      30.990  -0.804  52.176  1.00  0.00     0.044 A 
ATOM     13  C   UNL     1      30.203   0.320  51.821  1.00  0.00     0.052 A 
ATOM     14  C   UNL     1      30.598  -1.569  53.295  1.00  0.00     0.039 A 
ATOM     15  C   UNL     1      28.998   0.598  52.473  1.00  0.00     0.049 A 
ATOM     16  C   UNL     1      29.359  -1.298  53.944  1.00  0.00     0.060 A 
ATOM     17  C   UNL     1      28.599  -0.198  53.542  1.00  0.00     0.039 A 
BRANCH  15  18
ATOM     18  N   UNL     1      28.191   1.684  52.102  1.00  0.00    -0.306 N 
ATOM     19  C   UNL     1      27.221   2.349  52.848  1.00  0.00     0.116 A 
ATOM     20  C   UNL     1      28.125   2.256  50.894  1.00  0.00     0.204 A 
ATOM     21  C   UNL     1      26.639   3.275  52.055  1.00  0.00     0.056 A 
ATOM     22  N   UNL     1      27.241   3.223  50.846  1.00  0.00    -0.242 NA
ATOM     23  C   UNL     1      25.548   4.254  52.415  1.00  0.00     0.068 C 
ENDBRANCH  15  18
BRANCH  16  24
ATOM     24  C   UNL     1      28.940  -2.163  55.089  1.00  0.00     0.416 C 
ATOM     25  F   UNL     1      27.828  -2.893  54.873  1.00  0.00    -0.166 F 
ATOM     26  F   UNL     1      29.844  -3.104  55.332  1.00  0.00    -0.166 F 
ATOM     27  F   UNL     1      28.635  -1.444  56.189  1.00  0.00    -0.166 F 
ENDBRANCH  16  24
ENDBRANCH  10  12
ENDBRANCH   1   8
BRANCH   6  28
ATOM     28  N   UNL     1      37.218   0.885  49.181  1.00  0.00    -0.324 N 
ATOM     29  H   UNL     1      36.907   1.830  48.915  1.00  0.00     0.170 HD
BRANCH  28  30
ATOM     30  C   UNL     1      38.580   0.591  49.266  1.00  0.00     0.227 A 
ATOM     31  N   UNL     1      39.248   0.019  50.260  1.00  0.00    -0.221 NA
ATOM     32  N   UNL     1      39.177   1.074  48.146  1.00  0.00    -0.213 NA
ATOM     33  C   UNL     1      40.579  -0.108  50.102  1.00  0.00     0.117 A 
ATOM     34  C   UNL     1      40.506   0.953  48.048  1.00  0.00     0.077 A 
ATOM     35  C   UNL     1      41.227   0.362  49.025  1.00  0.00     0.049 A 
BRANCH  34  36
ATOM     36  C   UNL     1      41.106   1.465  46.788  1.00  0.00     0.019 A 
ATOM     37  C   UNL     1      42.130   0.769  46.125  1.00  0.00     0.013 A 
ATOM     38  C   UNL     1      40.668   2.682  46.230  1.00  0.00     0.121 A 
ATOM     39  C   UNL     1      42.670   1.308  44.965  1.00  0.00     0.021 A 
ATOM     40  N   UNL     1      41.191   3.211  45.117  1.00  0.00    -0.264 NA
ATOM     41  C   UNL     1      42.151   2.512  44.489  1.00  0.00     0.111 A 
ENDBRANCH  34  36
ENDBRANCH  28  30
ENDBRANCH   6  28
TORSDOF 7
ENDMDL
MODEL 12
REMARK VINA RESULT:   -10.866      8.361     15.207
REMARK INTER + INTRA:         -14.273
REMARK INTER:                 -12.954
REMARK INTRA:                  -1.319
REMARK CONF_INDEPENDENT:        2.088
REMARK UNBOUND:                -1.319
REMARK SMILES Cc1cn(-c2cc(NC(=O)c3ccc(C)c(Nc4nccc(-c5cccnc5)n4)c3)cc(C(F)(F)F)c2)cn1
REMARK SMILES IDX 11 1 12 2 13 3 14 4 15 5 16 6 30 7 9 8 10 9 8 10 7 12 6 13
REMARK SMILES IDX 31 14 5 15 32 16 37 17 4 18 3 19 38 20 2 21 39 22 1 23 33 24
REMARK SMILES IDX 34 25 35 26 36 27 17 28 18 30 19 31 29 32 20 33 22 34 21 35
REMARK SMILES IDX 23 36 24 37 28 38 25 39 27 40 26 41
REMARK H PARENT 8 11 17 29
ROOT
ATOM      1  C   UNL     1      36.000  -1.619  49.271  1.00  0.00     0.042 A 
ATOM      2  C   UNL     1      35.232  -2.787  49.149  1.00  0.00     0.014 A 
ATOM      3  C   UNL     1      33.857  -2.781  49.387  1.00  0.00     0.006 A 
ATOM      4  C   UNL     1      33.210  -1.639  49.833  1.00  0.00    -0.027 A 
ATOM      5  C   UNL     1      31.711  -1.649  50.096  1.00  0.00     0.046 C 
ATOM      6  C   UNL     1      33.986  -0.503  50.056  1.00  0.00     0.045 A 
ATOM      7  C   UNL     1      35.360  -0.523  49.788  1.00  0.00     0.040 A 
ENDROOT
BRANCH   1   8
ATOM      8  C   UNL     1      37.471  -1.562  49.164  1.00  0.00     0.255 C 
ATOM      9  O   UNL     1      38.045  -1.122  50.130  1.00  0.00    -0.269 OA
ATOM     10  N   UNL     1      38.015  -2.226  48.132  1.00  0.00    -0.322 N 
ATOM     11  H   UNL     1      37.366  -2.663  47.463  1.00  0.00     0.170 HD
BRANCH  10  12
ATOM     12  C   UNL     1      39.374  -2.376  47.884  1.00  0.00     0.044 A 
ATOM     13  C   UNL     1      39.926  -2.028  46.627  1.00  0.00     0.052 A 
ATOM     14  C   UNL     1      40.214  -2.991  48.838  1.00  0.00     0.039 A 
ATOM     15  C   UNL     1      41.293  -2.166  46.371  1.00  0.00     0.049 A 
ATOM     16  C   UNL     1      41.610  -3.110  48.583  1.00  0.00     0.060 A 
ATOM     17  C   UNL     1      42.118  -2.727  47.340  1.00  0.00     0.039 A 
BRANCH  15  18
ATOM     18  N   UNL     1      41.856  -1.785  45.143  1.00  0.00    -0.306 N 
ATOM     19  C   UNL     1      42.161  -0.507  44.679  1.00  0.00     0.116 A 
ATOM     20  C   UNL     1      42.137  -2.585  44.108  1.00  0.00     0.204 A 
ATOM     21  C   UNL     1      42.607  -0.615  43.408  1.00  0.00     0.056 A 
ATOM     22  N   UNL     1      42.616  -1.926  43.081  1.00  0.00    -0.242 NA
ATOM     23  C   UNL     1      43.077   0.489  42.492  1.00  0.00     0.068 C 
ENDBRANCH  15  18
BRANCH  16  24
ATOM     24  C   UNL     1      42.486  -3.711  49.635  1.00  0.00     0.416 C 
ATOM     25  F   UNL     1      42.552  -3.015  50.787  1.00  0.00    -0.166 F 
ATOM     26  F   UNL     1      42.006  -4.878  50.046  1.00  0.00    -0.166 F 
ATOM     27  F   UNL     1      43.775  -3.793  49.243  1.00  0.00    -0.166 F 
ENDBRANCH  16  24
ENDBRANCH  10  12
ENDBRANCH   1   8
BRANCH   6  28
ATOM     28  N   UNL     1      33.334   0.702  50.350  1.00  0.00    -0.324 N 
ATOM     29  H   UNL     1      32.981   1.300  49.589  1.00  0.00     0.170 HD
BRANCH  28  30
ATOM     30  C   UNL     1      33.167   1.086  51.682  1.00  0.00     0.227 A 
ATOM     31  N   UNL     1      33.874   1.955  52.392  1.00  0.00    -0.221 NA
ATOM     32  N   UNL     1      32.160   0.338  52.203  1.00  0.00    -0.213 NA
ATOM     33  C   UNL     1      33.524   2.109  53.684  1.00  0.00     0.117 A 
ATOM     34  C   UNL     1      31.870   0.503  53.499  1.00  0.00     0.077 A 
ATOM     35  C   UNL     1      32.549   1.388  54.259  1.00  0.00     0.049 A 
BRANCH  34  36
ATOM     36  C   UNL     1      30.738  -0.312  54.012  1.00  0.00     0.019 A 
ATOM     37  C   UNL     1      29.680   0.268  54.729  1.00  0.00     0.013 A 
ATOM     38  C   UNL     1      30.706  -1.705  53.802  1.00  0.00     0.121 A 
ATOM     39  C   UNL     1      28.661  -0.547  55.206  1.00  0.00     0.021 A 
ATOM     40  N   UNL     1      29.731  -2.497  54.266  1.00  0.00    -0.264 NA
ATOM     41  C   UNL     1      28.719  -1.912  54.927  1.00  0.00     0.111 A 
ENDBRANCH  34  36
ENDBRANCH  28  30
ENDBRANCH   6  28
TORSDOF 7
ENDMDL
MODEL 13
REMARK VINA RESULT:   -10.788      2.819      4.354
REMARK INTER + INTRA:         -14.156
REMARK INTER:                 -12.876
REMARK INTRA:                  -1.280
REMARK CONF_INDEPENDENT:        2.088
REMARK UNBOUND:                -1.280
REMARK SMILES Cc1cn(-c2cc(NC(=O)c3ccc(C)c(Nc4nccc(-c5cccnc5)n4)c3)cc(C(F)(F)F)c2)cn1
REMARK SMILES IDX 11 1 12 2 13 3 14 4 15 5 16 6 30 7 9 8 10 9 8 10 7 12 6 13
REMARK SMILES IDX 31 14 5 15 32 16 37 17 4 18 3 19 38 20 2 21 39 22 1 23 33 24
REMARK SMILES IDX 34 25 35 26 36 27 17 28 18 30 19 31 29 32 20 33 22 34 21 35
REMARK SMILES IDX 23 36 24 37 28 38 25 39 27 40 26 41
REMARK H PARENT 8 11 17 29
ROOT
ATOM      1  C   UNL     1      29.346   2.014  53.470  1.00  0.00     0.042 A 
ATOM      2  C   UNL     1      30.133   3.027  54.039  1.00  0.00     0.014 A 
ATOM      3  C   UNL     1      31.499   2.847  54.261  1.00  0.00     0.006 A 
ATOM      4  C   UNL     1      32.115   1.632  54.006  1.00  0.00    -0.027 A 
ATOM      5  C   UNL     1      33.604   1.449  54.261  1.00  0.00     0.046 C 
ATOM      6  C   UNL     1      31.317   0.589  53.539  1.00  0.00     0.045 A 
ATOM      7  C   UNL     1      29.953   0.797  53.299  1.00  0.00     0.040 A 
ENDROOT
BRANCH   1   8
ATOM      8  C   UNL     1      27.879   2.071  53.318  1.00  0.00     0.255 C 
ATOM      9  O   UNL     1      27.251   1.384  54.087  1.00  0.00    -0.269 OA
ATOM     10  N   UNL     1      27.403   3.049  52.533  1.00  0.00    -0.322 N 
ATOM     11  H   UNL     1      28.095   3.637  52.048  1.00  0.00     0.170 HD
BRANCH  10  12
ATOM     12  C   UNL     1      26.062   3.340  52.314  1.00  0.00     0.044 A 
ATOM     13  C   UNL     1      25.418   2.944  51.116  1.00  0.00     0.052 A 
ATOM     14  C   UNL     1      25.344   4.142  53.227  1.00  0.00     0.039 A 
ATOM     15  C   UNL     1      24.068   3.224  50.891  1.00  0.00     0.049 A 
ATOM     16  C   UNL     1      23.962   4.407  53.007  1.00  0.00     0.060 A 
ATOM     17  C   UNL     1      23.358   3.972  51.825  1.00  0.00     0.039 A 
BRANCH  15  18
ATOM     18  N   UNL     1      23.410   2.799  49.726  1.00  0.00    -0.306 N 
ATOM     19  C   UNL     1      22.713   1.615  49.497  1.00  0.00     0.116 A 
ATOM     20  C   UNL     1      23.397   3.422  48.542  1.00  0.00     0.204 A 
ATOM     21  C   UNL     1      22.322   1.599  48.204  1.00  0.00     0.056 A 
ATOM     22  N   UNL     1      22.731   2.753  47.632  1.00  0.00    -0.242 NA
ATOM     23  C   UNL     1      21.523   0.537  47.488  1.00  0.00     0.068 C 
ENDBRANCH  15  18
BRANCH  16  24
ATOM     24  C   UNL     1      23.210   5.208  54.020  1.00  0.00     0.416 C 
ATOM     25  F   UNL     1      22.573   6.291  53.531  1.00  0.00    -0.166 F 
ATOM     26  F   UNL     1      22.206   4.507  54.533  1.00  0.00    -0.166 F 
ATOM     27  F   UNL     1      24.019   5.723  54.969  1.00  0.00    -0.166 F 
ENDBRANCH  16  24
ENDBRANCH  10  12
ENDBRANCH   1   8
BRANCH   6  28
ATOM     28  N   UNL     1      31.942  -0.593  53.122  1.00  0.00    -0.324 N 
ATOM     29  H   UNL     1      32.405  -1.206  53.808  1.00  0.00     0.170 HD
BRANCH  28  30
ATOM     30  C   UNL     1      31.934  -0.934  51.768  1.00  0.00     0.227 A 
ATOM     31  N   UNL     1      30.902  -1.254  50.997  1.00  0.00    -0.221 NA
ATOM     32  N   UNL     1      33.223  -0.967  51.343  1.00  0.00    -0.213 NA
ATOM     33  C   UNL     1      31.180  -1.587  49.722  1.00  0.00     0.117 A 
ATOM     34  C   UNL     1      33.451  -1.335  50.077  1.00  0.00     0.077 A 
ATOM     35  C   UNL     1      32.434  -1.653  49.248  1.00  0.00     0.049 A 
BRANCH  34  36
ATOM     36  C   UNL     1      34.875  -1.322  49.652  1.00  0.00     0.019 A 
ATOM     37  C   UNL     1      35.680  -0.182  49.810  1.00  0.00     0.013 A 
ATOM     38  C   UNL     1      35.455  -2.460  49.058  1.00  0.00     0.121 A 
ATOM     39  C   UNL     1      36.997  -0.219  49.371  1.00  0.00     0.021 A 
ATOM     40  N   UNL     1      36.722  -2.500  48.625  1.00  0.00    -0.264 NA
ATOM     41  C   UNL     1      37.476  -1.404  48.813  1.00  0.00     0.111 A 
ENDBRANCH  34  36
ENDBRANCH  28  30
ENDBRANCH   6  28
TORSDOF 7
ENDMDL
MODEL 14
REMARK VINA RESULT:   -10.771      4.734     13.545
REMARK INTER + INTRA:         -14.214
REMARK INTER:                 -12.859
REMARK INTRA:                  -1.354
REMARK CONF_INDEPENDENT:        2.088
REMARK UNBOUND:                -1.354
REMARK SMILES Cc1cn(-c2cc(NC(=O)c3ccc(C)c(Nc4nccc(-c5cccnc5)n4)c3)cc(C(F)(F)F)c2)cn1
REMARK SMILES IDX 11 1 12 2 13 3 14 4 15 5 16 6 30 7 9 8 10 9 8 10 7 12 6 13
REMARK SMILES IDX 31 14 5 15 32 16 37 17 4 18 3 19 38 20 2 21 39 22 1 23 33 24
REMARK SMILES IDX 34 25 35 26 36 27 17 28 18 30 19 31 29 32 20 33 22 34 21 35
REMARK SMILES IDX 23 36 24 37 28 38 25 39 27 40 26 41
REMARK H PARENT 8 11 17 29
ROOT
ATOM      1  C   UNL     1      21.070   7.299  54.223  1.00  0.00     0.042 A 
ATOM      2  C   UNL     1      20.899   7.436  55.609  1.00  0.00     0.014 A 
ATOM      3  C   UNL     1      20.162   8.491  56.150  1.00  0.00     0.006 A 
ATOM      4  C   UNL     1      19.640   9.490  55.344  1.00  0.00    -0.027 A 
ATOM      5  C   UNL     1      18.844  10.638  55.949  1.00  0.00     0.046 C 
ATOM      6  C   UNL     1      19.895   9.415  53.976  1.00  0.00     0.045 A 
ATOM      7  C   UNL     1      20.615   8.336  53.450  1.00  0.00     0.040 A 
ENDROOT
BRANCH   1   8
ATOM      8  C   UNL     1      21.935   6.294  53.576  1.00  0.00     0.255 C 
ATOM      9  O   UNL     1      21.882   5.184  54.047  1.00  0.00    -0.269 OA
ATOM     10  N   UNL     1      22.480   6.649  52.402  1.00  0.00    -0.322 N 
ATOM     11  H   UNL     1      22.308   7.612  52.080  1.00  0.00     0.170 HD
BRANCH  10  12
ATOM     12  C   UNL     1      23.254   5.838  51.583  1.00  0.00     0.044 A 
ATOM     13  C   UNL     1      24.325   5.078  52.115  1.00  0.00     0.052 A 
ATOM     14  C   UNL     1      23.068   5.845  50.183  1.00  0.00     0.039 A 
ATOM     15  C   UNL     1      25.103   4.251  51.300  1.00  0.00     0.049 A 
ATOM     16  C   UNL     1      23.848   4.986  49.358  1.00  0.00     0.060 A 
ATOM     17  C   UNL     1      24.874   4.229  49.928  1.00  0.00     0.039 A 
BRANCH  15  18
ATOM     18  N   UNL     1      26.139   3.462  51.824  1.00  0.00    -0.306 N 
ATOM     19  C   UNL     1      26.461   3.213  53.156  1.00  0.00     0.116 A 
ATOM     20  C   UNL     1      27.105   2.847  51.132  1.00  0.00     0.204 A 
ATOM     21  C   UNL     1      27.588   2.468  53.186  1.00  0.00     0.056 A 
ATOM     22  N   UNL     1      27.956   2.222  51.909  1.00  0.00    -0.242 NA
ATOM     23  C   UNL     1      28.315   1.931  54.395  1.00  0.00     0.068 C 
ENDBRANCH  15  18
BRANCH  16  24
ATOM     24  C   UNL     1      23.589   4.969  47.886  1.00  0.00     0.416 C 
ATOM     25  F   UNL     1      22.290   4.882  47.537  1.00  0.00    -0.166 F 
ATOM     26  F   UNL     1      23.948   6.119  47.326  1.00  0.00    -0.166 F 
ATOM     27  F   UNL     1      24.150   3.903  47.279  1.00  0.00    -0.166 F 
ENDBRANCH  16  24
ENDBRANCH  10  12
ENDBRANCH   1   8
BRANCH   6  28
ATOM     28  N   UNL     1      19.244  10.319  53.127  1.00  0.00    -0.324 N 
ATOM     29  H   UNL     1      19.789  10.921  52.493  1.00  0.00     0.170 HD
BRANCH  28  30
ATOM     30  C   UNL     1      17.850  10.398  53.146  1.00  0.00     0.227 A 
ATOM     31  N   UNL     1      17.075  11.472  53.053  1.00  0.00    -0.221 NA
ATOM     32  N   UNL     1      17.369   9.147  53.364  1.00  0.00    -0.213 NA
ATOM     33  C   UNL     1      15.747  11.270  53.146  1.00  0.00     0.117 A 
ATOM     34  C   UNL     1      16.045   9.001  53.481  1.00  0.00     0.077 A 
ATOM     35  C   UNL     1      15.214  10.060  53.376  1.00  0.00     0.049 A 
BRANCH  34  36
ATOM     36  C   UNL     1      15.567   7.608  53.684  1.00  0.00     0.019 A 
ATOM     37  C   UNL     1      14.791   7.252  54.798  1.00  0.00     0.013 A 
ATOM     38  C   UNL     1      15.898   6.597  52.761  1.00  0.00     0.121 A 
ATOM     39  C   UNL     1      14.394   5.929  54.949  1.00  0.00     0.021 A 
ATOM     40  N   UNL     1      15.525   5.319  52.905  1.00  0.00    -0.264 NA
ATOM     41  C   UNL     1      14.762   5.011  53.967  1.00  0.00     0.111 A 
ENDBRANCH  34  36
ENDBRANCH  28  30
ENDBRANCH   6  28
TORSDOF 7
ENDMDL
MODEL 15
REMARK VINA RESULT:   -10.616      2.043      2.594
REMARK INTER + INTRA:         -13.835
REMARK INTER:                 -12.704
REMARK INTRA:                  -1.131
REMARK CONF_INDEPENDENT:        2.088
REMARK UNBOUND:                -1.131
REMARK SMILES Cc1cn(-c2cc(NC(=O)c3ccc(C)c(Nc4nccc(-c5cccnc5)n4)c3)cc(C(F)(F)F)c2)cn1
REMARK SMILES IDX 11 1 12 2 13 3 14 4 15 5 16 6 30 7 9 8 10 9 8 10 7 12 6 13
REMARK SMILES IDX 31 14 5 15 32 16 37 17 4 18 3 19 38 20 2 21 39 22 1 23 33 24
REMARK SMILES IDX 34 25 35 26 36 27 17 28 18 30 19 31 29 32 20 33 22 34 21 35
REMARK SMILES IDX 23 36 24 37 28 38 25 39 27 40 26 41
REMARK H PARENT 8 11 17 29
ROOT
ATOM      1  C   UNL     1      27.704   2.057  53.435  1.00  0.00     0.042 A 
ATOM      2  C   UNL     1      27.558   1.172  54.514  1.00  0.00     0.014 A 
ATOM      3  C   UNL     1      28.565   0.267  54.853  1.00  0.00     0.006 A 
ATOM      4  C   UNL     1      29.713   0.149  54.087  1.00  0.00    -0.027 A 
ATOM      5  C   UNL     1      30.800  -0.848  54.464  1.00  0.00     0.046 C 
ATOM      6  C   UNL     1      29.818   0.953  52.953  1.00  0.00     0.045 A 
ATOM      7  C   UNL     1      28.808   1.873  52.644  1.00  0.00     0.040 A 
ENDROOT
BRANCH   1   8
ATOM      8  C   UNL     1      26.645   2.953  52.931  1.00  0.00     0.255 C 
ATOM      9  O   UNL     1      26.487   3.972  53.558  1.00  0.00    -0.269 OA
ATOM     10  N   UNL     1      26.159   2.669  51.714  1.00  0.00    -0.322 N 
ATOM     11  H   UNL     1      26.512   1.816  51.257  1.00  0.00     0.170 HD
BRANCH  10  12
ATOM     12  C   UNL     1      25.225   3.420  51.012  1.00  0.00     0.044 A 
ATOM     13  C   UNL     1      24.807   4.688  51.487  1.00  0.00     0.052 A 
ATOM     14  C   UNL     1      24.580   2.884  49.876  1.00  0.00     0.039 A 
ATOM     15  C   UNL     1      23.874   5.455  50.783  1.00  0.00     0.049 A 
ATOM     16  C   UNL     1      23.646   3.676  49.148  1.00  0.00     0.060 A 
ATOM     17  C   UNL     1      23.286   4.935  49.635  1.00  0.00     0.039 A 
BRANCH  15  18
ATOM     18  N   UNL     1      23.486   6.730  51.222  1.00  0.00    -0.306 N 
ATOM     19  C   UNL     1      23.060   7.128  52.488  1.00  0.00     0.116 A 
ATOM     20  C   UNL     1      23.355   7.830  50.471  1.00  0.00     0.204 A 
ATOM     21  C   UNL     1      22.708   8.431  52.424  1.00  0.00     0.056 A 
ATOM     22  N   UNL     1      22.931   8.860  51.162  1.00  0.00    -0.242 NA
ATOM     23  C   UNL     1      22.203   9.312  53.541  1.00  0.00     0.068 C 
ENDBRANCH  15  18
BRANCH  16  24
ATOM     24  C   UNL     1      23.024   3.107  47.915  1.00  0.00     0.416 C 
ATOM     25  F   UNL     1      22.187   3.938  47.263  1.00  0.00    -0.166 F 
ATOM     26  F   UNL     1      23.942   2.860  46.988  1.00  0.00    -0.166 F 
ATOM     27  F   UNL     1      22.255   2.030  48.179  1.00  0.00    -0.166 F 
ENDBRANCH  16  24
ENDBRANCH  10  12
ENDBRANCH   1   8
BRANCH   6  28
ATOM     28  N   UNL     1      31.034   0.970  52.257  1.00  0.00    -0.324 N 
ATOM     29  H   UNL     1      31.745   1.683  52.472  1.00  0.00     0.170 HD
BRANCH  28  30
ATOM     30  C   UNL     1      31.274   0.011  51.271  1.00  0.00     0.227 A 
ATOM     31  N   UNL     1      30.407  -0.777  50.648  1.00  0.00    -0.221 NA
ATOM     32  N   UNL     1      32.617  -0.058  51.081  1.00  0.00    -0.213 NA
ATOM     33  C   UNL     1      30.915  -1.653  49.760  1.00  0.00     0.117 A 
ATOM     34  C   UNL     1      33.076  -0.965  50.212  1.00  0.00     0.077 A 
ATOM     35  C   UNL     1      32.233  -1.778  49.540  1.00  0.00     0.049 A 
BRANCH  34  36
ATOM     36  C   UNL     1      34.549  -0.977  50.014  1.00  0.00     0.019 A 
ATOM     37  C   UNL     1      35.202  -2.067  49.416  1.00  0.00     0.013 A 
ATOM     38  C   UNL     1      35.337   0.111  50.440  1.00  0.00     0.121 A 
ATOM     39  C   UNL     1      36.584  -2.033  49.280  1.00  0.00     0.021 A 
ATOM     40  N   UNL     1      36.670   0.145  50.318  1.00  0.00    -0.264 NA
ATOM     41  C   UNL     1      37.266  -0.899  49.720  1.00  0.00     0.111 A 
ENDBRANCH  34  36
ENDBRANCH  28  30
ENDBRANCH   6  28
TORSDOF 7
ENDMDL
MODEL 16
REMARK VINA RESULT:   -10.607      8.250     14.928
REMARK INTER + INTRA:         -14.043
REMARK INTER:                 -12.695
REMARK INTRA:                  -1.349
REMARK CONF_INDEPENDENT:        2.088
REMARK UNBOUND:                -1.349
REMARK SMILES Cc1cn(-c2cc(NC(=O)c3ccc(C)c(Nc4nccc(-c5cccnc5)n4)c3)cc(C(F)(F)F)c2)cn1
REMARK SMILES IDX 11 1 12 2 13 3 14 4 15 5 16 6 30 7 9 8 10 9 8 10 7 12 6 13
REMARK SMILES IDX 31 14 5 15 32 16 37 17 4 18 3 19 38 20 2 21 39 22 1 23 33 24
REMARK SMILES IDX 34 25 35 26 36 27 17 28 18 30 19 31 29 32 20 33 22 34 21 35
REMARK SMILES IDX 23 36 24 37 28 38 25 39 27 40 26 41
REMARK H PARENT 8 11 17 29
ROOT
ATOM      1  C   UNL     1      36.179  -1.611  49.570  1.00  0.00     0.042 A 
ATOM      2  C   UNL     1      35.444  -2.778  49.318  1.00  0.00     0.014 A 
ATOM      3  C   UNL     1      34.050  -2.788  49.386  1.00  0.00     0.006 A 
ATOM      4  C   UNL     1      33.342  -1.666  49.787  1.00  0.00    -0.027 A 
ATOM      5  C   UNL     1      31.822  -1.694  49.865  1.00  0.00     0.046 C 
ATOM      6  C   UNL     1      34.073  -0.533  50.140  1.00  0.00     0.045 A 
ATOM      7  C   UNL     1      35.471  -0.536  50.041  1.00  0.00     0.040 A 
ENDROOT
BRANCH   1   8
ATOM      8  C   UNL     1      37.652  -1.541  49.645  1.00  0.00     0.255 C 
ATOM      9  O   UNL     1      38.094  -0.792  50.482  1.00  0.00    -0.269 OA
ATOM     10  N   UNL     1      38.324  -2.484  48.967  1.00  0.00    -0.322 N 
ATOM     11  H   UNL     1      37.767  -3.137  48.398  1.00  0.00     0.170 HD
BRANCH  10  12
ATOM     12  C   UNL     1      39.702  -2.660  48.962  1.00  0.00     0.044 A 
ATOM     13  C   UNL     1      40.446  -2.601  50.166  1.00  0.00     0.052 A 
ATOM     14  C   UNL     1      40.406  -2.781  47.744  1.00  0.00     0.039 A 
ATOM     15  C   UNL     1      41.832  -2.787  50.173  1.00  0.00     0.049 A 
ATOM     16  C   UNL     1      41.814  -2.992  47.755  1.00  0.00     0.060 A 
ATOM     17  C   UNL     1      42.506  -2.957  48.968  1.00  0.00     0.039 A 
BRANCH  15  18
ATOM     18  N   UNL     1      42.572  -2.772  51.364  1.00  0.00    -0.306 N 
ATOM     19  C   UNL     1      42.664  -3.753  52.351  1.00  0.00     0.116 A 
ATOM     20  C   UNL     1      43.288  -1.751  51.851  1.00  0.00     0.204 A 
ATOM     21  C   UNL     1      43.424  -3.269  53.357  1.00  0.00     0.056 A 
ATOM     22  N   UNL     1      43.831  -2.028  53.011  1.00  0.00    -0.242 NA
ATOM     23  C   UNL     1      43.824  -3.965  54.636  1.00  0.00     0.068 C 
ENDBRANCH  15  18
BRANCH  16  24
ATOM     24  C   UNL     1      42.526  -3.177  46.454  1.00  0.00     0.416 C 
ATOM     25  F   UNL     1      42.123  -2.358  45.463  1.00  0.00    -0.166 F 
ATOM     26  F   UNL     1      43.811  -2.864  46.565  1.00  0.00    -0.166 F 
ATOM     27  F   UNL     1      42.338  -4.409  45.938  1.00  0.00    -0.166 F 
ENDBRANCH  16  24
ENDBRANCH  10  12
ENDBRANCH   1   8
BRANCH   6  28
ATOM     28  N   UNL     1      33.379   0.657  50.391  1.00  0.00    -0.324 N 
ATOM     29  H   UNL     1      33.031   1.230  49.609  1.00  0.00     0.170 HD
BRANCH  28  30
ATOM     30  C   UNL     1      33.161   1.061  51.710  1.00  0.00     0.227 A 
ATOM     31  N   UNL     1      33.825   1.960  52.425  1.00  0.00    -0.221 NA
ATOM     32  N   UNL     1      32.157   0.298  52.214  1.00  0.00    -0.213 NA
ATOM     33  C   UNL     1      33.432   2.128  53.702  1.00  0.00     0.117 A 
ATOM     34  C   UNL     1      31.824   0.478  53.497  1.00  0.00     0.077 A 
ATOM     35  C   UNL     1      32.457   1.394  54.261  1.00  0.00     0.049 A 
BRANCH  34  36
ATOM     36  C   UNL     1      30.696  -0.355  53.990  1.00  0.00     0.019 A 
ATOM     37  C   UNL     1      29.566   0.219  54.594  1.00  0.00     0.013 A 
ATOM     38  C   UNL     1      30.741  -1.759  53.876  1.00  0.00     0.121 A 
ATOM     39  C   UNL     1      28.555  -0.611  55.060  1.00  0.00     0.021 A 
ATOM     40  N   UNL     1      29.773  -2.565  54.330  1.00  0.00    -0.264 NA
ATOM     41  C   UNL     1      28.692  -1.987  54.881  1.00  0.00     0.111 A 
ENDBRANCH  34  36
ENDBRANCH  28  30
ENDBRANCH   6  28
TORSDOF 7
ENDMDL
MODEL 17
REMARK VINA RESULT:   -10.597      2.751      5.065
REMARK INTER + INTRA:         -14.277
REMARK INTER:                 -12.685
REMARK INTRA:                  -1.592
REMARK CONF_INDEPENDENT:        2.088
REMARK UNBOUND:                -1.592
REMARK SMILES Cc1cn(-c2cc(NC(=O)c3ccc(C)c(Nc4nccc(-c5cccnc5)n4)c3)cc(C(F)(F)F)c2)cn1
REMARK SMILES IDX 11 1 12 2 13 3 14 4 15 5 16 6 30 7 9 8 10 9 8 10 7 12 6 13
REMARK SMILES IDX 31 14 5 15 32 16 37 17 4 18 3 19 38 20 2 21 39 22 1 23 33 24
REMARK SMILES IDX 34 25 35 26 36 27 17 28 18 30 19 31 29 32 20 33 22 34 21 35
REMARK SMILES IDX 23 36 24 37 28 38 25 39 27 40 26 41
REMARK H PARENT 8 11 17 29
ROOT
ATOM      1  C   UNL     1      27.504   1.636  53.158  1.00  0.00     0.042 A 
ATOM      2  C   UNL     1      27.288   0.921  54.345  1.00  0.00     0.014 A 
ATOM      3  C   UNL     1      28.040  -0.212  54.658  1.00  0.00     0.006 A 
ATOM      4  C   UNL     1      28.974  -0.723  53.770  1.00  0.00    -0.027 A 
ATOM      5  C   UNL     1      29.782  -1.964  54.121  1.00  0.00     0.046 C 
ATOM      6  C   UNL     1      29.120  -0.076  52.544  1.00  0.00     0.045 A 
ATOM      7  C   UNL     1      28.373   1.074  52.259  1.00  0.00     0.040 A 
ENDROOT
BRANCH   1   8
ATOM      8  C   UNL     1      26.674   2.764  52.689  1.00  0.00     0.255 C 
ATOM      9  O   UNL     1      26.802   3.053  51.525  1.00  0.00    -0.269 OA
ATOM     10  N   UNL     1      25.703   3.170  53.522  1.00  0.00    -0.322 N 
ATOM     11  H   UNL     1      25.656   2.712  54.443  1.00  0.00     0.170 HD
BRANCH  10  12
ATOM     12  C   UNL     1      24.757   4.151  53.255  1.00  0.00     0.044 A 
ATOM     13  C   UNL     1      24.431   4.504  51.922  1.00  0.00     0.052 A 
ATOM     14  C   UNL     1      24.187   4.903  54.305  1.00  0.00     0.039 A 
ATOM     15  C   UNL     1      23.474   5.483  51.643  1.00  0.00     0.049 A 
ATOM     16  C   UNL     1      23.195   5.885  54.020  1.00  0.00     0.060 A 
ATOM     17  C   UNL     1      22.882   6.180  52.692  1.00  0.00     0.039 A 
BRANCH  15  18
ATOM     18  N   UNL     1      23.113   5.809  50.327  1.00  0.00    -0.306 N 
ATOM     19  C   UNL     1      23.925   5.927  49.201  1.00  0.00     0.116 A 
ATOM     20  C   UNL     1      21.900   6.173  49.895  1.00  0.00     0.204 A 
ATOM     21  C   UNL     1      23.159   6.344  48.170  1.00  0.00     0.056 A 
ATOM     22  N   UNL     1      21.889   6.461  48.617  1.00  0.00    -0.242 NA
ATOM     23  C   UNL     1      23.580   6.598  46.742  1.00  0.00     0.068 C 
ENDBRANCH  15  18
BRANCH  16  24
ATOM     24  C   UNL     1      22.565   6.624  55.156  1.00  0.00     0.416 C 
ATOM     25  F   UNL     1      22.103   5.847  56.155  1.00  0.00    -0.166 F 
ATOM     26  F   UNL     1      23.456   7.381  55.785  1.00  0.00    -0.166 F 
ATOM     27  F   UNL     1      21.475   7.321  54.772  1.00  0.00    -0.166 F 
ENDBRANCH  16  24
ENDBRANCH  10  12
ENDBRANCH   1   8
BRANCH   6  28
ATOM     28  N   UNL     1      30.166  -0.474  51.701  1.00  0.00    -0.324 N 
ATOM     29  H   UNL     1      30.005  -1.186  50.974  1.00  0.00     0.170 HD
BRANCH  28  30
ATOM     30  C   UNL     1      31.428   0.104  51.854  1.00  0.00     0.227 A 
ATOM     31  N   UNL     1      32.539  -0.130  51.167  1.00  0.00    -0.221 NA
ATOM     32  N   UNL     1      31.373   0.937  52.925  1.00  0.00    -0.213 NA
ATOM     33  C   UNL     1      33.642   0.539  51.553  1.00  0.00     0.117 A 
ATOM     34  C   UNL     1      32.502   1.555  53.290  1.00  0.00     0.077 A 
ATOM     35  C   UNL     1      33.654   1.364  52.612  1.00  0.00     0.049 A 
BRANCH  34  36
ATOM     36  C   UNL     1      32.381   2.482  54.446  1.00  0.00     0.019 A 
ATOM     37  C   UNL     1      33.298   3.526  54.649  1.00  0.00     0.013 A 
ATOM     38  C   UNL     1      31.342   2.325  55.383  1.00  0.00     0.121 A 
ATOM     39  C   UNL     1      33.150   4.347  55.761  1.00  0.00     0.021 A 
ATOM     40  N   UNL     1      31.199   3.108  56.461  1.00  0.00    -0.264 NA
ATOM     41  C   UNL     1      32.074   4.114  56.617  1.00  0.00     0.111 A 
ENDBRANCH  34  36
ENDBRANCH  28  30
ENDBRANCH   6  28
TORSDOF 7
ENDMDL
MODEL 18
REMARK VINA RESULT:   -10.556      3.956     11.071
REMARK INTER + INTRA:         -14.059
REMARK INTER:                 -12.644
REMARK INTRA:                  -1.415
REMARK CONF_INDEPENDENT:        2.088
REMARK UNBOUND:                -1.415
REMARK SMILES Cc1cn(-c2cc(NC(=O)c3ccc(C)c(Nc4nccc(-c5cccnc5)n4)c3)cc(C(F)(F)F)c2)cn1
REMARK SMILES IDX 11 1 12 2 13 3 14 4 15 5 16 6 30 7 9 8 10 9 8 10 7 12 6 13
REMARK SMILES IDX 31 14 5 15 32 16 37 17 4 18 3 19 38 20 2 21 39 22 1 23 33 24
REMARK SMILES IDX 34 25 35 26 36 27 17 28 18 30 19 31 29 32 20 33 22 34 21 35
REMARK SMILES IDX 23 36 24 37 28 38 25 39 27 40 26 41
REMARK H PARENT 8 11 17 29
ROOT
ATOM      1  C   UNL     1      25.482   3.885  51.931  1.00  0.00     0.042 A 
ATOM      2  C   UNL     1      24.801   4.256  50.762  1.00  0.00     0.014 A 
ATOM      3  C   UNL     1      23.481   4.707  50.802  1.00  0.00     0.006 A 
ATOM      4  C   UNL     1      22.765   4.729  51.988  1.00  0.00    -0.027 A 
ATOM      5  C   UNL     1      21.323   5.217  52.016  1.00  0.00     0.046 C 
ATOM      6  C   UNL     1      23.403   4.263  53.137  1.00  0.00     0.045 A 
ATOM      7  C   UNL     1      24.736   3.838  53.080  1.00  0.00     0.040 A 
ENDROOT
BRANCH   1   8
ATOM      8  C   UNL     1      26.828   3.279  51.967  1.00  0.00     0.255 C 
ATOM      9  O   UNL     1      27.353   3.118  50.892  1.00  0.00    -0.269 OA
ATOM     10  N   UNL     1      27.414   3.210  53.172  1.00  0.00    -0.322 N 
ATOM     11  H   UNL     1      26.857   3.520  53.981  1.00  0.00     0.170 HD
BRANCH  10  12
ATOM     12  C   UNL     1      28.702   2.757  53.428  1.00  0.00     0.044 A 
ATOM     13  C   UNL     1      29.284   1.735  52.638  1.00  0.00     0.052 A 
ATOM     14  C   UNL     1      29.414   3.220  54.556  1.00  0.00     0.039 A 
ATOM     15  C   UNL     1      30.583   1.281  52.882  1.00  0.00     0.049 A 
ATOM     16  C   UNL     1      30.746   2.772  54.789  1.00  0.00     0.060 A 
ATOM     17  C   UNL     1      31.293   1.784  53.967  1.00  0.00     0.039 A 
BRANCH  15  18
ATOM     18  N   UNL     1      31.184   0.299  52.079  1.00  0.00    -0.306 N 
ATOM     19  C   UNL     1      32.534  -0.027  51.957  1.00  0.00     0.116 A 
ATOM     20  C   UNL     1      30.576  -0.481  51.178  1.00  0.00     0.204 A 
ATOM     21  C   UNL     1      32.654  -0.976  51.004  1.00  0.00     0.056 A 
ATOM     22  N   UNL     1      31.415  -1.270  50.552  1.00  0.00    -0.242 NA
ATOM     23  C   UNL     1      33.913  -1.661  50.528  1.00  0.00     0.068 C 
ENDBRANCH  15  18
BRANCH  16  24
ATOM     24  C   UNL     1      31.499   3.323  55.956  1.00  0.00     0.416 C 
ATOM     25  F   UNL     1      31.650   2.473  56.990  1.00  0.00    -0.166 F 
ATOM     26  F   UNL     1      32.759   3.586  55.630  1.00  0.00    -0.166 F 
ATOM     27  F   UNL     1      30.878   4.385  56.512  1.00  0.00    -0.166 F 
ENDBRANCH  16  24
ENDBRANCH  10  12
ENDBRANCH   1   8
BRANCH   6  28
ATOM     28  N   UNL     1      22.759   4.426  54.370  1.00  0.00    -0.324 N 
ATOM     29  H   UNL     1      22.317   3.621  54.836  1.00  0.00     0.170 HD
BRANCH  28  30
ATOM     30  C   UNL     1      22.720   5.690  54.963  1.00  0.00     0.227 A 
ATOM     31  N   UNL     1      21.802   6.639  54.841  1.00  0.00    -0.221 NA
ATOM     32  N   UNL     1      23.870   5.849  55.669  1.00  0.00    -0.213 NA
ATOM     33  C   UNL     1      22.033   7.794  55.494  1.00  0.00     0.117 A 
ATOM     34  C   UNL     1      24.070   7.025  56.275  1.00  0.00     0.077 A 
ATOM     35  C   UNL     1      23.156   8.016  56.195  1.00  0.00     0.049 A 
BRANCH  34  36
ATOM     36  C   UNL     1      25.325   7.136  57.062  1.00  0.00     0.019 A 
ATOM     37  C   UNL     1      25.334   7.670  58.361  1.00  0.00     0.013 A 
ATOM     38  C   UNL     1      26.554   6.717  56.514  1.00  0.00     0.121 A 
ATOM     39  C   UNL     1      26.541   7.773  59.040  1.00  0.00     0.021 A 
ATOM     40  N   UNL     1      27.721   6.821  57.161  1.00  0.00    -0.264 NA
ATOM     41  C   UNL     1      27.697   7.312  58.411  1.00  0.00     0.111 A 
ENDBRANCH  34  36
ENDBRANCH  28  30
ENDBRANCH   6  28
TORSDOF 7
ENDMDL
MODEL 19
REMARK VINA RESULT:   -10.530      5.727     10.894
REMARK INTER + INTRA:         -13.776
REMARK INTER:                 -12.618
REMARK INTRA:                  -1.158
REMARK CONF_INDEPENDENT:        2.088
REMARK UNBOUND:                -1.158
REMARK SMILES Cc1cn(-c2cc(NC(=O)c3ccc(C)c(Nc4nccc(-c5cccnc5)n4)c3)cc(C(F)(F)F)c2)cn1
REMARK SMILES IDX 11 1 12 2 13 3 14 4 15 5 16 6 30 7 9 8 10 9 8 10 7 12 6 13
REMARK SMILES IDX 31 14 5 15 32 16 37 17 4 18 3 19 38 20 2 21 39 22 1 23 33 24
REMARK SMILES IDX 34 25 35 26 36 27 17 28 18 30 19 31 29 32 20 33 22 34 21 35
REMARK SMILES IDX 23 36 24 37 28 38 25 39 27 40 26 41
REMARK H PARENT 8 11 17 29
ROOT
ATOM      1  C   UNL     1      22.377   6.475  55.215  1.00  0.00     0.042 A 
ATOM      2  C   UNL     1      21.636   7.608  54.845  1.00  0.00     0.014 A 
ATOM      3  C   UNL     1      21.173   8.517  55.798  1.00  0.00     0.006 A 
ATOM      4  C   UNL     1      21.354   8.291  57.153  1.00  0.00    -0.027 A 
ATOM      5  C   UNL     1      20.836   9.287  58.182  1.00  0.00     0.046 C 
ATOM      6  C   UNL     1      21.998   7.115  57.532  1.00  0.00     0.045 A 
ATOM      7  C   UNL     1      22.478   6.228  56.559  1.00  0.00     0.040 A 
ENDROOT
BRANCH   1   8
ATOM      8  C   UNL     1      22.794   5.402  54.291  1.00  0.00     0.255 C 
ATOM      9  O   UNL     1      21.903   4.710  53.865  1.00  0.00    -0.269 OA
ATOM     10  N   UNL     1      24.054   5.470  53.836  1.00  0.00    -0.322 N 
ATOM     11  H   UNL     1      24.648   6.221  54.216  1.00  0.00     0.170 HD
BRANCH  10  12
ATOM     12  C   UNL     1      24.631   4.621  52.901  1.00  0.00     0.044 A 
ATOM     13  C   UNL     1      23.906   4.195  51.760  1.00  0.00     0.052 A 
ATOM     14  C   UNL     1      25.910   4.066  53.128  1.00  0.00     0.039 A 
ATOM     15  C   UNL     1      24.482   3.348  50.809  1.00  0.00     0.049 A 
ATOM     16  C   UNL     1      26.503   3.221  52.146  1.00  0.00     0.060 A 
ATOM     17  C   UNL     1      25.763   2.851  51.021  1.00  0.00     0.039 A 
BRANCH  15  18
ATOM     18  N   UNL     1      23.787   2.955  49.655  1.00  0.00    -0.306 N 
ATOM     19  C   UNL     1      22.960   1.850  49.465  1.00  0.00     0.116 A 
ATOM     20  C   UNL     1      23.852   3.527  48.447  1.00  0.00     0.204 A 
ATOM     21  C   UNL     1      22.578   1.826  48.169  1.00  0.00     0.056 A 
ATOM     22  N   UNL     1      23.121   2.902  47.557  1.00  0.00    -0.242 NA
ATOM     23  C   UNL     1      21.668   0.834  47.487  1.00  0.00     0.068 C 
ENDBRANCH  15  18
BRANCH  16  24
ATOM     24  C   UNL     1      27.881   2.696  52.384  1.00  0.00     0.416 C 
ATOM     25  F   UNL     1      27.963   1.360  52.538  1.00  0.00    -0.166 F 
ATOM     26  F   UNL     1      28.658   2.899  51.326  1.00  0.00    -0.166 F 
ATOM     27  F   UNL     1      28.424   3.177  53.522  1.00  0.00    -0.166 F 
ENDBRANCH  16  24
ENDBRANCH  10  12
ENDBRANCH   1   8
BRANCH   6  28
ATOM     28  N   UNL     1      22.336   6.944  58.881  1.00  0.00    -0.324 N 
ATOM     29  H   UNL     1      21.799   6.294  59.472  1.00  0.00     0.170 HD
BRANCH  28  30
ATOM     30  C   UNL     1      23.406   7.662  59.417  1.00  0.00     0.227 A 
ATOM     31  N   UNL     1      23.689   8.953  59.291  1.00  0.00    -0.221 NA
ATOM     32  N   UNL     1      24.211   6.781  60.065  1.00  0.00    -0.213 NA
ATOM     33  C   UNL     1      24.820   9.385  59.880  1.00  0.00     0.117 A 
ATOM     34  C   UNL     1      25.339   7.252  60.608  1.00  0.00     0.077 A 
ATOM     35  C   UNL     1      25.662   8.560  60.522  1.00  0.00     0.049 A 
BRANCH  34  36
ATOM     36  C   UNL     1      26.167   6.255  61.336  1.00  0.00     0.019 A 
ATOM     37  C   UNL     1      26.396   6.357  62.717  1.00  0.00     0.013 A 
ATOM     38  C   UNL     1      26.760   5.179  60.647  1.00  0.00     0.121 A 
ATOM     39  C   UNL     1      27.199   5.410  63.340  1.00  0.00     0.021 A 
ATOM     40  N   UNL     1      27.541   4.267  61.241  1.00  0.00    -0.264 NA
ATOM     41  C   UNL     1      27.723   4.375  62.567  1.00  0.00     0.111 A 
ENDBRANCH  34  36
ENDBRANCH  28  30
ENDBRANCH   6  28
TORSDOF 7
ENDMDL
MODEL 20
REMARK VINA RESULT:   -10.482      3.685     11.924
REMARK INTER + INTRA:         -13.735
REMARK INTER:                 -12.570
REMARK INTRA:                  -1.165
REMARK CONF_INDEPENDENT:        2.088
REMARK UNBOUND:                -1.165
REMARK SMILES Cc1cn(-c2cc(NC(=O)c3ccc(C)c(Nc4nccc(-c5cccnc5)n4)c3)cc(C(F)(F)F)c2)cn1
REMARK SMILES IDX 11 1 12 2 13 3 14 4 15 5 16 6 30 7 9 8 10 9 8 10 7 12 6 13
REMARK SMILES IDX 31 14 5 15 32 16 37 17 4 18 3 19 38 20 2 21 39 22 1 23 33 24
REMARK SMILES IDX 34 25 35 26 36 27 17 28 18 30 19 31 29 32 20 33 22 34 21 35
REMARK SMILES IDX 23 36 24 37 28 38 25 39 27 40 26 41
REMARK H PARENT 8 11 17 29
ROOT
ATOM      1  C   UNL     1      25.721   3.963  51.939  1.00  0.00     0.042 A 
ATOM      2  C   UNL     1      25.142   4.567  50.813  1.00  0.00     0.014 A 
ATOM      3  C   UNL     1      24.079   5.464  50.935  1.00  0.00     0.006 A 
ATOM      4  C   UNL     1      23.502   5.730  52.166  1.00  0.00    -0.027 A 
ATOM      5  C   UNL     1      22.339   6.705  52.284  1.00  0.00     0.046 C 
ATOM      6  C   UNL     1      24.006   5.054  53.276  1.00  0.00     0.045 A 
ATOM      7  C   UNL     1      25.089   4.176  53.136  1.00  0.00     0.040 A 
ENDROOT
BRANCH   1   8
ATOM      8  C   UNL     1      26.757   2.912  51.892  1.00  0.00     0.255 C 
ATOM      9  O   UNL     1      27.394   2.857  50.869  1.00  0.00    -0.269 OA
ATOM     10  N   UNL     1      27.046   2.315  53.058  1.00  0.00    -0.322 N 
ATOM     11  H   UNL     1      26.481   2.586  53.875  1.00  0.00     0.170 HD
BRANCH  10  12
ATOM     12  C   UNL     1      28.037   1.364  53.264  1.00  0.00     0.044 A 
ATOM     13  C   UNL     1      29.239   1.391  52.513  1.00  0.00     0.052 A 
ATOM     14  C   UNL     1      27.820   0.278  54.140  1.00  0.00     0.039 A 
ATOM     15  C   UNL     1      30.246   0.445  52.720  1.00  0.00     0.049 A 
ATOM     16  C   UNL     1      28.856  -0.673  54.365  1.00  0.00     0.060 A 
ATOM     17  C   UNL     1      30.038  -0.591  53.625  1.00  0.00     0.039 A 
BRANCH  15  18
ATOM     18  N   UNL     1      31.457   0.489  52.012  1.00  0.00    -0.306 N 
ATOM     19  C   UNL     1      32.707   0.931  52.441  1.00  0.00     0.116 A 
ATOM     20  C   UNL     1      31.640   0.192  50.719  1.00  0.00     0.204 A 
ATOM     21  C   UNL     1      33.558   0.869  51.394  1.00  0.00     0.056 A 
ATOM     22  N   UNL     1      32.880   0.374  50.335  1.00  0.00    -0.242 NA
ATOM     23  C   UNL     1      35.025   1.224  51.367  1.00  0.00     0.068 C 
ENDBRANCH  15  18
BRANCH  16  24
ATOM     24  C   UNL     1      28.621  -1.778  55.343  1.00  0.00     0.416 C 
ATOM     25  F   UNL     1      27.717  -2.700  54.954  1.00  0.00    -0.166 F 
ATOM     26  F   UNL     1      29.714  -2.515  55.502  1.00  0.00    -0.166 F 
ATOM     27  F   UNL     1      28.127  -1.329  56.515  1.00  0.00    -0.166 F 
ENDBRANCH  16  24
ENDBRANCH  10  12
ENDBRANCH   1   8
BRANCH   6  28
ATOM     28  N   UNL     1      23.550   5.425  54.547  1.00  0.00    -0.324 N 
ATOM     29  H   UNL     1      22.628   5.111  54.880  1.00  0.00     0.170 HD
BRANCH  28  30
ATOM     30  C   UNL     1      24.356   6.225  55.359  1.00  0.00     0.227 A 
ATOM     31  N   UNL     1      25.667   6.420  55.298  1.00  0.00    -0.221 NA
ATOM     32  N   UNL     1      23.567   6.751  56.332  1.00  0.00    -0.213 NA
ATOM     33  C   UNL     1      26.206   7.216  56.241  1.00  0.00     0.117 A 
ATOM     34  C   UNL     1      24.153   7.510  57.265  1.00  0.00     0.077 A 
ATOM     35  C   UNL     1      25.481   7.752  57.235  1.00  0.00     0.049 A 
BRANCH  34  36
ATOM     36  C   UNL     1      23.242   8.090  58.287  1.00  0.00     0.019 A 
ATOM     37  C   UNL     1      23.116   7.524  59.565  1.00  0.00     0.013 A 
ATOM     38  C   UNL     1      22.464   9.225  57.989  1.00  0.00     0.121 A 
ATOM     39  C   UNL     1      22.230   8.094  60.471  1.00  0.00     0.021 A 
ATOM     40  N   UNL     1      21.602   9.774  58.855  1.00  0.00    -0.264 NA
ATOM     41  C   UNL     1      21.520   9.228  60.079  1.00  0.00     0.111 A 
ENDBRANCH  34  36
ENDBRANCH  28  30
ENDBRANCH   6  28
TORSDOF 7
ENDMDL
