MODEL 1
REMARK VINA RESULT:   -15.150      0.000      0.000
REMARK INTER + INTRA:         -18.420
REMARK INTER:                 -17.238
REMARK INTRA:                  -1.182
REMARK CONF_INDEPENDENT:        2.088
REMARK UNBOUND:                -1.182
REMARK SMILES Cc1cn(-c2cc(NC(=O)c3ccc(C)c(Nc4nccc(-c5cccnc5)n4)c3)cc(C(F)(F)F)c2)cn1
REMARK SMILES IDX 11 1 12 2 13 3 14 4 15 5 16 6 30 7 9 8 10 9 8 10 7 12 6 13
REMARK SMILES IDX 31 14 5 15 32 16 37 17 4 18 3 19 38 20 2 21 39 22 1 23 33 24
REMARK SMILES IDX 34 25 35 26 36 27 17 28 18 30 19 31 29 32 20 33 22 34 21 35
REMARK SMILES IDX 23 36 24 37 28 38 25 39 27 40 26 41
REMARK H PARENT 8 11 17 29
ROOT
ATOM      1  C   UNL     1      27.973   1.858  53.222  1.00  0.00     0.042 A 
ATOM      2  C   UNL     1      27.694   1.347  54.498  1.00  0.00     0.014 A 
ATOM      3  C   UNL     1      28.415   0.275  55.025  1.00  0.00     0.006 A 
ATOM      4  C   UNL     1      29.379  -0.380  54.276  1.00  0.00    -0.027 A 
ATOM      5  C   UNL     1      30.152  -1.553  54.861  1.00  0.00     0.046 C 
ATOM      6  C   UNL     1      29.589   0.057  52.969  1.00  0.00     0.045 A 
ATOM      7  C   UNL     1      28.872   1.151  52.467  1.00  0.00     0.040 A 
ENDROOT
BRANCH   1   8
ATOM      8  C   UNL     1      27.181   2.901  52.539  1.00  0.00     0.255 C 
ATOM      9  O   UNL     1      27.526   3.157  51.411  1.00  0.00    -0.269 OA
ATOM     10  N   UNL     1      26.035   3.259  53.136  1.00  0.00    -0.322 N 
ATOM     11  H   UNL     1      25.831   2.832  54.051  1.00  0.00     0.170 HD
BRANCH  10  12
ATOM     12  C   UNL     1      25.098   4.154  52.634  1.00  0.00     0.044 A 
ATOM     13  C   UNL     1      24.176   4.800  53.494  1.00  0.00     0.052 A 
ATOM     14  C   UNL     1      24.966   4.348  51.242  1.00  0.00     0.039 A 
ATOM     15  C   UNL     1      23.237   5.709  53.000  1.00  0.00     0.049 A 
ATOM     16  C   UNL     1      24.023   5.292  50.742  1.00  0.00     0.060 A 
ATOM     17  C   UNL     1      23.152   5.930  51.629  1.00  0.00     0.039 A 
BRANCH  15  18
ATOM     18  N   UNL     1      22.347   6.385  53.848  1.00  0.00    -0.306 N 
ATOM     19  C   UNL     1      22.049   6.133  55.185  1.00  0.00     0.116 A 
ATOM     20  C   UNL     1      21.516   7.378  53.509  1.00  0.00     0.204 A 
ATOM     21  C   UNL     1      21.071   6.982  55.568  1.00  0.00     0.056 A 
ATOM     22  N   UNL     1      20.774   7.775  54.515  1.00  0.00    -0.242 NA
ATOM     23  C   UNL     1      20.427   7.106  56.928  1.00  0.00     0.068 C 
ENDBRANCH  15  18
BRANCH  16  24
ATOM     24  C   UNL     1      23.945   5.522  49.268  1.00  0.00     0.416 C 
ATOM     25  F   UNL     1      24.632   6.592  48.821  1.00  0.00    -0.166 F 
ATOM     26  F   UNL     1      24.519   4.529  48.599  1.00  0.00    -0.166 F 
ATOM     27  F   UNL     1      22.685   5.764  48.852  1.00  0.00    -0.166 F 
ENDBRANCH  16  24
ENDBRANCH  10  12
ENDBRANCH   1   8
BRANCH   6  28
ATOM     28  N   UNL     1      30.665  -0.480  52.251  1.00  0.00    -0.324 N 
ATOM     29  H   UNL     1      30.525  -1.294  51.636  1.00  0.00     0.170 HD
BRANCH  28  30
ATOM     30  C   UNL     1      31.931   0.097  52.377  1.00  0.00     0.227 A 
ATOM     31  N   UNL     1      32.324   1.073  53.186  1.00  0.00    -0.221 NA
ATOM     32  N   UNL     1      32.735  -0.467  51.440  1.00  0.00    -0.213 NA
ATOM     33  C   UNL     1      33.604   1.474  53.072  1.00  0.00     0.117 A 
ATOM     34  C   UNL     1      33.990  -0.013  51.343  1.00  0.00     0.077 A 
ATOM     35  C   UNL     1      34.443   0.966  52.155  1.00  0.00     0.049 A 
BRANCH  34  36
ATOM     36  C   UNL     1      34.840  -0.686  50.326  1.00  0.00     0.019 A 
ATOM     37  C   UNL     1      36.150  -0.254  50.060  1.00  0.00     0.013 A 
ATOM     38  C   UNL     1      34.343  -1.776  49.586  1.00  0.00     0.121 A 
ATOM     39  C   UNL     1      36.889  -0.906  49.081  1.00  0.00     0.021 A 
ATOM     40  N   UNL     1      35.048  -2.403  48.636  1.00  0.00    -0.264 NA
ATOM     41  C   UNL     1      36.306  -1.986  48.420  1.00  0.00     0.111 A 
ENDBRANCH  34  36
ENDBRANCH  28  30
ENDBRANCH   6  28
TORSDOF 7
ENDMDL
MODEL 2
REMARK VINA RESULT:   -13.774      2.256      3.635
REMARK INTER + INTRA:         -17.091
REMARK INTER:                 -15.862
REMARK INTRA:                  -1.229
REMARK CONF_INDEPENDENT:        2.088
REMARK UNBOUND:                -1.229
REMARK SMILES Cc1cn(-c2cc(NC(=O)c3ccc(C)c(Nc4nccc(-c5cccnc5)n4)c3)cc(C(F)(F)F)c2)cn1
REMARK SMILES IDX 11 1 12 2 13 3 14 4 15 5 16 6 30 7 9 8 10 9 8 10 7 12 6 13
REMARK SMILES IDX 31 14 5 15 32 16 37 17 4 18 3 19 38 20 2 21 39 22 1 23 33 24
REMARK SMILES IDX 34 25 35 26 36 27 17 28 18 30 19 31 29 32 20 33 22 34 21 35
REMARK SMILES IDX 23 36 24 37 28 38 25 39 27 40 26 41
REMARK H PARENT 8 11 17 29
ROOT
ATOM      1  C   UNL     1      28.252   1.631  53.512  1.00  0.00     0.042 A 
ATOM      2  C   UNL     1      27.987   0.991  54.732  1.00  0.00     0.014 A 
ATOM      3  C   UNL     1      28.685  -0.154  55.118  1.00  0.00     0.006 A 
ATOM      4  C   UNL     1      29.608  -0.752  54.275  1.00  0.00    -0.027 A 
ATOM      5  C   UNL     1      30.356  -2.005  54.706  1.00  0.00     0.046 C 
ATOM      6  C   UNL     1      29.800  -0.180  53.018  1.00  0.00     0.045 A 
ATOM      7  C   UNL     1      29.108   0.984  52.660  1.00  0.00     0.040 A 
ENDROOT
BRANCH   1   8
ATOM      8  C   UNL     1      27.478   2.766  52.970  1.00  0.00     0.255 C 
ATOM      9  O   UNL     1      27.895   3.230  51.937  1.00  0.00    -0.269 OA
ATOM     10  N   UNL     1      26.281   2.989  53.533  1.00  0.00    -0.322 N 
ATOM     11  H   UNL     1      26.026   2.399  54.337  1.00  0.00     0.170 HD
BRANCH  10  12
ATOM     12  C   UNL     1      25.355   3.943  53.131  1.00  0.00     0.044 A 
ATOM     13  C   UNL     1      25.055   4.132  51.759  1.00  0.00     0.052 A 
ATOM     14  C   UNL     1      24.783   4.828  54.070  1.00  0.00     0.039 A 
ATOM     15  C   UNL     1      24.118   5.083  51.346  1.00  0.00     0.049 A 
ATOM     16  C   UNL     1      23.812   5.781  53.649  1.00  0.00     0.060 A 
ATOM     17  C   UNL     1      23.523   5.914  52.289  1.00  0.00     0.039 A 
BRANCH  15  18
ATOM     18  N   UNL     1      23.783   5.249  49.993  1.00  0.00    -0.306 N 
ATOM     19  C   UNL     1      23.988   6.354  49.170  1.00  0.00     0.116 A 
ATOM     20  C   UNL     1      23.099   4.391  49.227  1.00  0.00     0.204 A 
ATOM     21  C   UNL     1      23.425   6.095  47.969  1.00  0.00     0.056 A 
ATOM     22  N   UNL     1      22.903   4.850  48.014  1.00  0.00    -0.242 NA
ATOM     23  C   UNL     1      23.403   6.978  46.744  1.00  0.00     0.068 C 
ENDBRANCH  15  18
BRANCH  16  24
ATOM     24  C   UNL     1      23.177   6.665  54.674  1.00  0.00     0.416 C 
ATOM     25  F   UNL     1      24.024   7.494  55.315  1.00  0.00    -0.166 F 
ATOM     26  F   UNL     1      22.331   7.519  54.109  1.00  0.00    -0.166 F 
ATOM     27  F   UNL     1      22.608   5.963  55.675  1.00  0.00    -0.166 F 
ENDBRANCH  16  24
ENDBRANCH  10  12
ENDBRANCH   1   8
BRANCH   6  28
ATOM     28  N   UNL     1      30.840  -0.667  52.216  1.00  0.00    -0.324 N 
ATOM     29  H   UNL     1      30.667  -1.435  51.552  1.00  0.00     0.170 HD
BRANCH  28  30
ATOM     30  C   UNL     1      32.112  -0.102  52.324  1.00  0.00     0.227 A 
ATOM     31  N   UNL     1      32.532   0.856  53.140  1.00  0.00    -0.221 NA
ATOM     32  N   UNL     1      32.891  -0.656  51.359  1.00  0.00    -0.213 NA
ATOM     33  C   UNL     1      33.812   1.250  53.005  1.00  0.00     0.117 A 
ATOM     34  C   UNL     1      34.148  -0.210  51.242  1.00  0.00     0.077 A 
ATOM     35  C   UNL     1      34.626   0.751  52.061  1.00  0.00     0.049 A 
BRANCH  34  36
ATOM     36  C   UNL     1      34.970  -0.873  50.196  1.00  0.00     0.019 A 
ATOM     37  C   UNL     1      36.062  -0.224  49.598  1.00  0.00     0.013 A 
ATOM     38  C   UNL     1      34.660  -2.177  49.763  1.00  0.00     0.121 A 
ATOM     39  C   UNL     1      36.778  -0.883  48.607  1.00  0.00     0.021 A 
ATOM     40  N   UNL     1      35.343  -2.815  48.803  1.00  0.00    -0.264 NA
ATOM     41  C   UNL     1      36.398  -2.180  48.266  1.00  0.00     0.111 A 
ENDBRANCH  34  36
ENDBRANCH  28  30
ENDBRANCH   6  28
TORSDOF 7
ENDMDL
MODEL 3
REMARK VINA RESULT:   -13.145      0.991      1.581
REMARK INTER + INTRA:         -16.388
REMARK INTER:                 -15.233
REMARK INTRA:                  -1.155
REMARK CONF_INDEPENDENT:        2.088
REMARK UNBOUND:                -1.155
REMARK SMILES Cc1cn(-c2cc(NC(=O)c3ccc(C)c(Nc4nccc(-c5cccnc5)n4)c3)cc(C(F)(F)F)c2)cn1
REMARK SMILES IDX 11 1 12 2 13 3 14 4 15 5 16 6 30 7 9 8 10 9 8 10 7 12 6 13
REMARK SMILES IDX 31 14 5 15 32 16 37 17 4 18 3 19 38 20 2 21 39 22 1 23 33 24
REMARK SMILES IDX 34 25 35 26 36 27 17 28 18 30 19 31 29 32 20 33 22 34 21 35
REMARK SMILES IDX 23 36 24 37 28 38 25 39 27 40 26 41
REMARK H PARENT 8 11 17 29
ROOT
ATOM      1  C   UNL     1      28.339   1.804  53.103  1.00  0.00     0.042 A 
ATOM      2  C   UNL     1      27.909   1.004  54.172  1.00  0.00     0.014 A 
ATOM      3  C   UNL     1      28.714  -0.012  54.690  1.00  0.00     0.006 A 
ATOM      4  C   UNL     1      29.934  -0.326  54.113  1.00  0.00    -0.027 A 
ATOM      5  C   UNL     1      30.798  -1.442  54.684  1.00  0.00     0.046 C 
ATOM      6  C   UNL     1      30.321   0.397  52.986  1.00  0.00     0.045 A 
ATOM      7  C   UNL     1      29.510   1.429  52.497  1.00  0.00     0.040 A 
ENDROOT
BRANCH   1   8
ATOM      8  C   UNL     1      27.507   2.810  52.414  1.00  0.00     0.255 C 
ATOM      9  O   UNL     1      27.819   3.047  51.273  1.00  0.00    -0.269 OA
ATOM     10  N   UNL     1      26.367   3.157  53.030  1.00  0.00    -0.322 N 
ATOM     11  H   UNL     1      26.194   2.747  53.959  1.00  0.00     0.170 HD
BRANCH  10  12
ATOM     12  C   UNL     1      25.398   4.017  52.530  1.00  0.00     0.044 A 
ATOM     13  C   UNL     1      24.475   4.655  53.395  1.00  0.00     0.052 A 
ATOM     14  C   UNL     1      25.234   4.182  51.137  1.00  0.00     0.039 A 
ATOM     15  C   UNL     1      23.503   5.530  52.902  1.00  0.00     0.049 A 
ATOM     16  C   UNL     1      24.258   5.090  50.638  1.00  0.00     0.060 A 
ATOM     17  C   UNL     1      23.387   5.722  51.529  1.00  0.00     0.039 A 
BRANCH  15  18
ATOM     18  N   UNL     1      22.611   6.198  53.754  1.00  0.00    -0.306 N 
ATOM     19  C   UNL     1      22.355   5.972  55.105  1.00  0.00     0.116 A 
ATOM     20  C   UNL     1      21.738   7.153  53.410  1.00  0.00     0.204 A 
ATOM     21  C   UNL     1      21.358   6.799  55.490  1.00  0.00     0.056 A 
ATOM     22  N   UNL     1      21.008   7.552  54.423  1.00  0.00    -0.242 NA
ATOM     23  C   UNL     1      20.744   6.938  56.862  1.00  0.00     0.068 C 
ENDBRANCH  15  18
BRANCH  16  24
ATOM     24  C   UNL     1      24.147   5.291  49.161  1.00  0.00     0.416 C 
ATOM     25  F   UNL     1      22.921   5.641  48.724  1.00  0.00    -0.166 F 
ATOM     26  F   UNL     1      24.886   6.320  48.762  1.00  0.00    -0.166 F 
ATOM     27  F   UNL     1      24.416   4.164  48.469  1.00  0.00    -0.166 F 
ENDBRANCH  16  24
ENDBRANCH  10  12
ENDBRANCH   1   8
BRANCH   6  28
ATOM     28  N   UNL     1      31.616   0.210  52.486  1.00  0.00    -0.324 N 
ATOM     29  H   UNL     1      32.429   0.574  53.002  1.00  0.00     0.170 HD
BRANCH  28  30
ATOM     30  C   UNL     1      31.796  -0.475  51.282  1.00  0.00     0.227 A 
ATOM     31  N   UNL     1      30.880  -1.001  50.479  1.00  0.00    -0.221 NA
ATOM     32  N   UNL     1      33.132  -0.599  51.075  1.00  0.00    -0.213 NA
ATOM     33  C   UNL     1      31.332  -1.653  49.391  1.00  0.00     0.117 A 
ATOM     34  C   UNL     1      33.533  -1.283  49.997  1.00  0.00     0.077 A 
ATOM     35  C   UNL     1      32.639  -1.822  49.140  1.00  0.00     0.049 A 
BRANCH  34  36
ATOM     36  C   UNL     1      35.004  -1.360  49.796  1.00  0.00     0.019 A 
ATOM     37  C   UNL     1      35.872  -0.400  50.340  1.00  0.00     0.013 A 
ATOM     38  C   UNL     1      35.567  -2.402  49.034  1.00  0.00     0.121 A 
ATOM     39  C   UNL     1      37.235  -0.510  50.098  1.00  0.00     0.021 A 
ATOM     40  N   UNL     1      36.880  -2.508  48.791  1.00  0.00    -0.264 NA
ATOM     41  C   UNL     1      37.690  -1.591  49.344  1.00  0.00     0.111 A 
ENDBRANCH  34  36
ENDBRANCH  28  30
ENDBRANCH   6  28
TORSDOF 7
ENDMDL
MODEL 4
REMARK VINA RESULT:   -12.547      1.519      3.624
REMARK INTER + INTRA:         -16.243
REMARK INTER:                 -14.635
REMARK INTRA:                  -1.608
REMARK CONF_INDEPENDENT:        2.088
REMARK UNBOUND:                -1.608
REMARK SMILES Cc1cn(-c2cc(NC(=O)c3ccc(C)c(Nc4nccc(-c5cccnc5)n4)c3)cc(C(F)(F)F)c2)cn1
REMARK SMILES IDX 11 1 12 2 13 3 14 4 15 5 16 6 30 7 9 8 10 9 8 10 7 12 6 13
REMARK SMILES IDX 31 14 5 15 32 16 37 17 4 18 3 19 38 20 2 21 39 22 1 23 33 24
REMARK SMILES IDX 34 25 35 26 36 27 17 28 18 30 19 31 29 32 20 33 22 34 21 35
REMARK SMILES IDX 23 36 24 37 28 38 25 39 27 40 26 41
REMARK H PARENT 8 11 17 29
ROOT
ATOM      1  C   UNL     1      27.781   1.646  52.952  1.00  0.00     0.042 A 
ATOM      2  C   UNL     1      27.444   1.022  54.162  1.00  0.00     0.014 A 
ATOM      3  C   UNL     1      28.145  -0.092  54.626  1.00  0.00     0.006 A 
ATOM      4  C   UNL     1      29.148  -0.676  53.869  1.00  0.00    -0.027 A 
ATOM      5  C   UNL     1      29.899  -1.895  54.384  1.00  0.00     0.046 C 
ATOM      6  C   UNL     1      29.418  -0.123  52.618  1.00  0.00     0.045 A 
ATOM      7  C   UNL     1      28.720   1.010  52.182  1.00  0.00     0.040 A 
ENDROOT
BRANCH   1   8
ATOM      8  C   UNL     1      27.017   2.744  52.327  1.00  0.00     0.255 C 
ATOM      9  O   UNL     1      27.322   3.006  51.189  1.00  0.00    -0.269 OA
ATOM     10  N   UNL     1      25.922   3.152  52.985  1.00  0.00    -0.322 N 
ATOM     11  H   UNL     1      25.737   2.717  53.900  1.00  0.00     0.170 HD
BRANCH  10  12
ATOM     12  C   UNL     1      25.014   4.107  52.545  1.00  0.00     0.044 A 
ATOM     13  C   UNL     1      24.122   4.733  53.451  1.00  0.00     0.052 A 
ATOM     14  C   UNL     1      24.876   4.386  51.168  1.00  0.00     0.039 A 
ATOM     15  C   UNL     1      23.212   5.702  53.019  1.00  0.00     0.049 A 
ATOM     16  C   UNL     1      23.964   5.389  50.734  1.00  0.00     0.060 A 
ATOM     17  C   UNL     1      23.124   6.005  51.664  1.00  0.00     0.039 A 
BRANCH  15  18
ATOM     18  N   UNL     1      22.353   6.359  53.914  1.00  0.00    -0.306 N 
ATOM     19  C   UNL     1      22.119   6.088  55.261  1.00  0.00     0.116 A 
ATOM     20  C   UNL     1      21.497   7.346  53.625  1.00  0.00     0.204 A 
ATOM     21  C   UNL     1      21.150   6.923  55.697  1.00  0.00     0.056 A 
ATOM     22  N   UNL     1      20.797   7.723  54.667  1.00  0.00    -0.242 NA
ATOM     23  C   UNL     1      20.568   7.024  57.086  1.00  0.00     0.068 C 
ENDBRANCH  15  18
BRANCH  16  24
ATOM     24  C   UNL     1      23.882   5.707  49.276  1.00  0.00     0.416 C 
ATOM     25  F   UNL     1      22.690   6.181  48.862  1.00  0.00    -0.166 F 
ATOM     26  F   UNL     1      24.699   6.705  48.959  1.00  0.00    -0.166 F 
ATOM     27  F   UNL     1      24.072   4.619  48.502  1.00  0.00    -0.166 F 
ENDBRANCH  16  24
ENDBRANCH  10  12
ENDBRANCH   1   8
BRANCH   6  28
ATOM     28  N   UNL     1      30.531  -0.592  51.908  1.00  0.00    -0.324 N 
ATOM     29  H   UNL     1      30.453  -1.428  51.313  1.00  0.00     0.170 HD
BRANCH  28  30
ATOM     30  C   UNL     1      31.748   0.085  52.014  1.00  0.00     0.227 A 
ATOM     31  N   UNL     1      32.852  -0.071  51.295  1.00  0.00    -0.221 NA
ATOM     32  N   UNL     1      31.661   0.926  53.077  1.00  0.00    -0.213 NA
ATOM     33  C   UNL     1      33.910   0.688  51.638  1.00  0.00     0.117 A 
ATOM     34  C   UNL     1      32.748   1.635  53.399  1.00  0.00     0.077 A 
ATOM     35  C   UNL     1      33.890   1.525  52.687  1.00  0.00     0.049 A 
BRANCH  34  36
ATOM     36  C   UNL     1      32.591   2.566  54.547  1.00  0.00     0.019 A 
ATOM     37  C   UNL     1      31.509   2.461  55.436  1.00  0.00     0.013 A 
ATOM     38  C   UNL     1      33.525   3.598  54.765  1.00  0.00     0.121 A 
ATOM     39  C   UNL     1      31.399   3.375  56.476  1.00  0.00     0.021 A 
ATOM     40  N   UNL     1      33.420   4.486  55.761  1.00  0.00    -0.264 NA
ATOM     41  C   UNL     1      32.390   4.347  56.611  1.00  0.00     0.111 A 
ENDBRANCH  34  36
ENDBRANCH  28  30
ENDBRANCH   6  28
TORSDOF 7
ENDMDL
MODEL 5
REMARK VINA RESULT:   -12.370      1.209      1.771
REMARK INTER + INTRA:         -15.913
REMARK INTER:                 -14.458
REMARK INTRA:                  -1.455
REMARK CONF_INDEPENDENT:        2.088
REMARK UNBOUND:                -1.455
REMARK SMILES Cc1cn(-c2cc(NC(=O)c3ccc(C)c(Nc4nccc(-c5cccnc5)n4)c3)cc(C(F)(F)F)c2)cn1
REMARK SMILES IDX 11 1 12 2 13 3 14 4 15 5 16 6 30 7 9 8 10 9 8 10 7 12 6 13
REMARK SMILES IDX 31 14 5 15 32 16 37 17 4 18 3 19 38 20 2 21 39 22 1 23 33 24
REMARK SMILES IDX 34 25 35 26 36 27 17 28 18 30 19 31 29 32 20 33 22 34 21 35
REMARK SMILES IDX 23 36 24 37 28 38 25 39 27 40 26 41
REMARK H PARENT 8 11 17 29
ROOT
ATOM      1  C   UNL     1      28.163   1.847  53.147  1.00  0.00     0.042 A 
ATOM      2  C   UNL     1      27.775   0.530  53.433  1.00  0.00     0.014 A 
ATOM      3  C   UNL     1      28.648  -0.367  54.051  1.00  0.00     0.006 A 
ATOM      4  C   UNL     1      29.958  -0.016  54.332  1.00  0.00    -0.027 A 
ATOM      5  C   UNL     1      30.901  -1.007  55.000  1.00  0.00     0.046 C 
ATOM      6  C   UNL     1      30.381   1.258  53.956  1.00  0.00     0.045 A 
ATOM      7  C   UNL     1      29.483   2.151  53.359  1.00  0.00     0.040 A 
ENDROOT
BRANCH   1   8
ATOM      8  C   UNL     1      27.354   2.819  52.385  1.00  0.00     0.255 C 
ATOM      9  O   UNL     1      27.677   2.972  51.233  1.00  0.00    -0.269 OA
ATOM     10  N   UNL     1      26.215   3.226  52.967  1.00  0.00    -0.322 N 
ATOM     11  H   UNL     1      26.029   2.884  53.921  1.00  0.00     0.170 HD
BRANCH  10  12
ATOM     12  C   UNL     1      25.265   4.066  52.401  1.00  0.00     0.044 A 
ATOM     13  C   UNL     1      24.391   4.828  53.216  1.00  0.00     0.052 A 
ATOM     14  C   UNL     1      25.068   4.089  51.003  1.00  0.00     0.039 A 
ATOM     15  C   UNL     1      23.438   5.684  52.656  1.00  0.00     0.049 A 
ATOM     16  C   UNL     1      24.112   4.978  50.434  1.00  0.00     0.060 A 
ATOM     17  C   UNL     1      23.291   5.734  51.274  1.00  0.00     0.039 A 
BRANCH  15  18
ATOM     18  N   UNL     1      22.596   6.473  53.454  1.00  0.00    -0.306 N 
ATOM     19  C   UNL     1      22.052   6.186  54.704  1.00  0.00     0.116 A 
ATOM     20  C   UNL     1      22.059   7.655  53.126  1.00  0.00     0.204 A 
ATOM     21  C   UNL     1      21.233   7.202  55.051  1.00  0.00     0.056 A 
ATOM     22  N   UNL     1      21.276   8.126  54.066  1.00  0.00    -0.242 NA
ATOM     23  C   UNL     1      20.432   7.358  56.322  1.00  0.00     0.068 C 
ENDBRANCH  15  18
BRANCH  16  24
ATOM     24  C   UNL     1      23.967   5.026  48.948  1.00  0.00     0.416 C 
ATOM     25  F   UNL     1      24.764   5.917  48.326  1.00  0.00    -0.166 F 
ATOM     26  F   UNL     1      24.350   3.881  48.394  1.00  0.00    -0.166 F 
ATOM     27  F   UNL     1      22.727   5.395  48.565  1.00  0.00    -0.166 F 
ENDBRANCH  16  24
ENDBRANCH  10  12
ENDBRANCH   1   8
BRANCH   6  28
ATOM     28  N   UNL     1      31.646   1.691  54.373  1.00  0.00    -0.324 N 
ATOM     29  H   UNL     1      31.735   2.375  55.138  1.00  0.00     0.170 HD
BRANCH  28  30
ATOM     30  C   UNL     1      32.786   1.187  53.745  1.00  0.00     0.227 A 
ATOM     31  N   UNL     1      34.061   1.355  54.073  1.00  0.00    -0.221 NA
ATOM     32  N   UNL     1      32.383   0.518  52.634  1.00  0.00    -0.213 NA
ATOM     33  C   UNL     1      34.975   0.789  53.262  1.00  0.00     0.117 A 
ATOM     34  C   UNL     1      33.329   0.000  51.842  1.00  0.00     0.077 A 
ATOM     35  C   UNL     1      34.639   0.130  52.142  1.00  0.00     0.049 A 
BRANCH  34  36
ATOM     36  C   UNL     1      32.835  -0.751  50.658  1.00  0.00     0.019 A 
ATOM     37  C   UNL     1      31.462  -0.921  50.415  1.00  0.00     0.013 A 
ATOM     38  C   UNL     1      33.741  -1.332  49.750  1.00  0.00     0.121 A 
ATOM     39  C   UNL     1      31.059  -1.654  49.307  1.00  0.00     0.021 A 
ATOM     40  N   UNL     1      33.359  -2.047  48.684  1.00  0.00    -0.264 NA
ATOM     41  C   UNL     1      32.040  -2.171  48.462  1.00  0.00     0.111 A 
ENDBRANCH  34  36
ENDBRANCH  28  30
ENDBRANCH   6  28
TORSDOF 7
ENDMDL
MODEL 6
REMARK VINA RESULT:   -11.523      3.682     11.695
REMARK INTER + INTRA:         -14.752
REMARK INTER:                 -13.611
REMARK INTRA:                  -1.141
REMARK CONF_INDEPENDENT:        2.088
REMARK UNBOUND:                -1.141
REMARK SMILES Cc1cn(-c2cc(NC(=O)c3ccc(C)c(Nc4nccc(-c5cccnc5)n4)c3)cc(C(F)(F)F)c2)cn1
REMARK SMILES IDX 11 1 12 2 13 3 14 4 15 5 16 6 30 7 9 8 10 9 8 10 7 12 6 13
REMARK SMILES IDX 31 14 5 15 32 16 37 17 4 18 3 19 38 20 2 21 39 22 1 23 33 24
REMARK SMILES IDX 34 25 35 26 36 27 17 28 18 30 19 31 29 32 20 33 22 34 21 35
REMARK SMILES IDX 23 36 24 37 28 38 25 39 27 40 26 41
REMARK H PARENT 8 11 17 29
ROOT
ATOM      1  C   UNL     1      25.925   3.712  51.728  1.00  0.00     0.042 A 
ATOM      2  C   UNL     1      25.293   4.090  50.534  1.00  0.00     0.014 A 
ATOM      3  C   UNL     1      24.147   4.887  50.539  1.00  0.00     0.006 A 
ATOM      4  C   UNL     1      23.542   5.268  51.726  1.00  0.00    -0.027 A 
ATOM      5  C   UNL     1      22.289   6.131  51.717  1.00  0.00     0.046 C 
ATOM      6  C   UNL     1      24.107   4.809  52.915  1.00  0.00     0.045 A 
ATOM      7  C   UNL     1      25.271   4.030  52.889  1.00  0.00     0.040 A 
ENDROOT
BRANCH   1   8
ATOM      8  C   UNL     1      27.059   2.771  51.820  1.00  0.00     0.255 C 
ATOM      9  O   UNL     1      27.823   2.788  50.886  1.00  0.00    -0.269 OA
ATOM     10  N   UNL     1      27.256   2.197  53.016  1.00  0.00    -0.322 N 
ATOM     11  H   UNL     1      26.566   2.403  53.753  1.00  0.00     0.170 HD
BRANCH  10  12
ATOM     12  C   UNL     1      28.304   1.349  53.352  1.00  0.00     0.044 A 
ATOM     13  C   UNL     1      29.621   1.605  52.896  1.00  0.00     0.052 A 
ATOM     14  C   UNL     1      28.059   0.149  54.055  1.00  0.00     0.039 A 
ATOM     15  C   UNL     1      30.683   0.763  53.237  1.00  0.00     0.049 A 
ATOM     16  C   UNL     1      29.147  -0.695  54.420  1.00  0.00     0.060 A 
ATOM     17  C   UNL     1      30.435  -0.389  53.975  1.00  0.00     0.039 A 
BRANCH  15  18
ATOM     18  N   UNL     1      31.997   1.031  52.825  1.00  0.00    -0.306 N 
ATOM     19  C   UNL     1      32.664   0.589  51.683  1.00  0.00     0.116 A 
ATOM     20  C   UNL     1      32.929   1.706  53.508  1.00  0.00     0.204 A 
ATOM     21  C   UNL     1      33.941   1.025  51.745  1.00  0.00     0.056 A 
ATOM     22  N   UNL     1      34.078   1.749  52.879  1.00  0.00    -0.242 NA
ATOM     23  C   UNL     1      35.044   0.819  50.735  1.00  0.00     0.068 C 
ENDBRANCH  15  18
BRANCH  16  24
ATOM     24  C   UNL     1      28.867  -1.928  55.216  1.00  0.00     0.416 C 
ATOM     25  F   UNL     1      28.018  -2.800  54.636  1.00  0.00    -0.166 F 
ATOM     26  F   UNL     1      29.963  -2.664  55.357  1.00  0.00    -0.166 F 
ATOM     27  F   UNL     1      28.275  -1.653  56.397  1.00  0.00    -0.166 F 
ENDBRANCH  16  24
ENDBRANCH  10  12
ENDBRANCH   1   8
BRANCH   6  28
ATOM     28  N   UNL     1      23.612   5.311  54.126  1.00  0.00    -0.324 N 
ATOM     29  H   UNL     1      22.630   5.151  54.392  1.00  0.00     0.170 HD
BRANCH  28  30
ATOM     30  C   UNL     1      24.461   6.031  54.969  1.00  0.00     0.227 A 
ATOM     31  N   UNL     1      25.758   6.275  54.833  1.00  0.00    -0.221 NA
ATOM     32  N   UNL     1      23.740   6.405  56.057  1.00  0.00    -0.213 NA
ATOM     33  C   UNL     1      26.352   6.965  55.825  1.00  0.00     0.117 A 
ATOM     34  C   UNL     1      24.381   7.061  57.032  1.00  0.00     0.077 A 
ATOM     35  C   UNL     1      25.696   7.349  56.932  1.00  0.00     0.049 A 
BRANCH  34  36
ATOM     36  C   UNL     1      23.541   7.479  58.185  1.00  0.00     0.019 A 
ATOM     37  C   UNL     1      24.105   8.043  59.340  1.00  0.00     0.013 A 
ATOM     38  C   UNL     1      22.143   7.303  58.152  1.00  0.00     0.121 A 
ATOM     39  C   UNL     1      23.273   8.391  60.396  1.00  0.00     0.021 A 
ATOM     40  N   UNL     1      21.337   7.630  59.170  1.00  0.00    -0.264 NA
ATOM     41  C   UNL     1      21.901   8.191  60.253  1.00  0.00     0.111 A 
ENDBRANCH  34  36
ENDBRANCH  28  30
ENDBRANCH   6  28
TORSDOF 7
ENDMDL
MODEL 7
REMARK VINA RESULT:   -11.451      4.090     11.215
REMARK INTER + INTRA:         -14.691
REMARK INTER:                 -13.539
REMARK INTRA:                  -1.152
REMARK CONF_INDEPENDENT:        2.088
REMARK UNBOUND:                -1.152
REMARK SMILES Cc1cn(-c2cc(NC(=O)c3ccc(C)c(Nc4nccc(-c5cccnc5)n4)c3)cc(C(F)(F)F)c2)cn1
REMARK SMILES IDX 11 1 12 2 13 3 14 4 15 5 16 6 30 7 9 8 10 9 8 10 7 12 6 13
REMARK SMILES IDX 31 14 5 15 32 16 37 17 4 18 3 19 38 20 2 21 39 22 1 23 33 24
REMARK SMILES IDX 34 25 35 26 36 27 17 28 18 30 19 31 29 32 20 33 22 34 21 35
REMARK SMILES IDX 23 36 24 37 28 38 25 39 27 40 26 41
REMARK H PARENT 8 11 17 29
ROOT
ATOM      1  C   UNL     1      25.910   3.808  51.947  1.00  0.00     0.042 A 
ATOM      2  C   UNL     1      25.302   4.296  50.781  1.00  0.00     0.014 A 
ATOM      3  C   UNL     1      24.163   5.100  50.837  1.00  0.00     0.006 A 
ATOM      4  C   UNL     1      23.539   5.380  52.042  1.00  0.00    -0.027 A 
ATOM      5  C   UNL     1      22.293   6.252  52.087  1.00  0.00     0.046 C 
ATOM      6  C   UNL     1      24.078   4.812  53.195  1.00  0.00     0.045 A 
ATOM      7  C   UNL     1      25.237   4.028  53.121  1.00  0.00     0.040 A 
ENDROOT
BRANCH   1   8
ATOM      8  C   UNL     1      27.035   2.853  51.976  1.00  0.00     0.255 C 
ATOM      9  O   UNL     1      27.759   2.876  51.011  1.00  0.00    -0.269 OA
ATOM     10  N   UNL     1      27.275   2.255  53.153  1.00  0.00    -0.322 N 
ATOM     11  H   UNL     1      26.619   2.457  53.921  1.00  0.00     0.170 HD
BRANCH  10  12
ATOM     12  C   UNL     1      28.325   1.390  53.430  1.00  0.00     0.044 A 
ATOM     13  C   UNL     1      29.622   1.632  52.913  1.00  0.00     0.052 A 
ATOM     14  C   UNL     1      28.097   0.186  54.131  1.00  0.00     0.039 A 
ATOM     15  C   UNL     1      30.688   0.772  53.195  1.00  0.00     0.049 A 
ATOM     16  C   UNL     1      29.188  -0.677  54.436  1.00  0.00     0.060 A 
ATOM     17  C   UNL     1      30.458  -0.385  53.932  1.00  0.00     0.039 A 
BRANCH  15  18
ATOM     18  N   UNL     1      31.985   1.025  52.723  1.00  0.00    -0.306 N 
ATOM     19  C   UNL     1      32.591   0.584  51.548  1.00  0.00     0.116 A 
ATOM     20  C   UNL     1      32.957   1.683  53.366  1.00  0.00     0.204 A 
ATOM     21  C   UNL     1      33.875   1.003  51.553  1.00  0.00     0.056 A 
ATOM     22  N   UNL     1      34.075   1.716  52.684  1.00  0.00    -0.242 NA
ATOM     23  C   UNL     1      34.926   0.790  50.491  1.00  0.00     0.068 C 
ENDBRANCH  15  18
BRANCH  16  24
ATOM     24  C   UNL     1      28.929  -1.915  55.232  1.00  0.00     0.416 C 
ATOM     25  F   UNL     1      28.150  -2.831  54.623  1.00  0.00    -0.166 F 
ATOM     26  F   UNL     1      30.050  -2.597  55.432  1.00  0.00    -0.166 F 
ATOM     27  F   UNL     1      28.270  -1.657  56.381  1.00  0.00    -0.166 F 
ENDBRANCH  16  24
ENDBRANCH  10  12
ENDBRANCH   1   8
BRANCH   6  28
ATOM     28  N   UNL     1      23.565   5.210  54.436  1.00  0.00    -0.324 N 
ATOM     29  H   UNL     1      22.920   4.595  54.952  1.00  0.00     0.170 HD
BRANCH  28  30
ATOM     30  C   UNL     1      23.937   6.446  54.969  1.00  0.00     0.227 A 
ATOM     31  N   UNL     1      23.858   7.649  54.414  1.00  0.00    -0.221 NA
ATOM     32  N   UNL     1      24.496   6.219  56.186  1.00  0.00    -0.213 NA
ATOM     33  C   UNL     1      24.332   8.681  55.137  1.00  0.00     0.117 A 
ATOM     34  C   UNL     1      24.982   7.272  56.853  1.00  0.00     0.077 A 
ATOM     35  C   UNL     1      24.909   8.518  56.338  1.00  0.00     0.049 A 
BRANCH  34  36
ATOM     36  C   UNL     1      25.551   6.976  58.193  1.00  0.00     0.019 A 
ATOM     37  C   UNL     1      24.734   6.853  59.329  1.00  0.00     0.013 A 
ATOM     38  C   UNL     1      26.941   6.825  58.362  1.00  0.00     0.121 A 
ATOM     39  C   UNL     1      25.324   6.601  60.561  1.00  0.00     0.021 A 
ATOM     40  N   UNL     1      27.516   6.590  59.549  1.00  0.00    -0.264 NA
ATOM     41  C   UNL     1      26.709   6.452  60.613  1.00  0.00     0.111 A 
ENDBRANCH  34  36
ENDBRANCH  28  30
ENDBRANCH   6  28
TORSDOF 7
ENDMDL
MODEL 8
REMARK VINA RESULT:   -11.433      2.064      3.061
REMARK INTER + INTRA:         -14.826
REMARK INTER:                 -13.521
REMARK INTRA:                  -1.305
REMARK CONF_INDEPENDENT:        2.088
REMARK UNBOUND:                -1.305
REMARK SMILES Cc1cn(-c2cc(NC(=O)c3ccc(C)c(Nc4nccc(-c5cccnc5)n4)c3)cc(C(F)(F)F)c2)cn1
REMARK SMILES IDX 11 1 12 2 13 3 14 4 15 5 16 6 30 7 9 8 10 9 8 10 7 12 6 13
REMARK SMILES IDX 31 14 5 15 32 16 37 17 4 18 3 19 38 20 2 21 39 22 1 23 33 24
REMARK SMILES IDX 34 25 35 26 36 27 17 28 18 30 19 31 29 32 20 33 22 34 21 35
REMARK SMILES IDX 23 36 24 37 28 38 25 39 27 40 26 41
REMARK H PARENT 8 11 17 29
ROOT
ATOM      1  C   UNL     1      26.980   2.414  52.393  1.00  0.00     0.042 A 
ATOM      2  C   UNL     1      27.131   1.043  52.136  1.00  0.00     0.014 A 
ATOM      3  C   UNL     1      27.903   0.229  52.965  1.00  0.00     0.006 A 
ATOM      4  C   UNL     1      28.618   0.758  54.028  1.00  0.00    -0.027 A 
ATOM      5  C   UNL     1      29.462  -0.141  54.920  1.00  0.00     0.046 C 
ATOM      6  C   UNL     1      28.555   2.136  54.226  1.00  0.00     0.045 A 
ATOM      7  C   UNL     1      27.755   2.933  53.397  1.00  0.00     0.040 A 
ENDROOT
BRANCH   1   8
ATOM      8  C   UNL     1      26.291   3.368  51.502  1.00  0.00     0.255 C 
ATOM      9  O   UNL     1      26.503   3.223  50.323  1.00  0.00    -0.269 OA
ATOM     10  N   UNL     1      25.327   4.113  52.064  1.00  0.00    -0.322 N 
ATOM     11  H   UNL     1      25.189   4.010  53.080  1.00  0.00     0.170 HD
BRANCH  10  12
ATOM     12  C   UNL     1      24.498   5.010  51.403  1.00  0.00     0.044 A 
ATOM     13  C   UNL     1      23.819   6.031  52.112  1.00  0.00     0.052 A 
ATOM     14  C   UNL     1      24.218   4.849  50.028  1.00  0.00     0.039 A 
ATOM     15  C   UNL     1      22.990   6.945  51.454  1.00  0.00     0.049 A 
ATOM     16  C   UNL     1      23.391   5.794  49.356  1.00  0.00     0.060 A 
ATOM     17  C   UNL     1      22.765   6.805  50.088  1.00  0.00     0.039 A 
BRANCH  15  18
ATOM     18  N   UNL     1      22.347   7.986  52.141  1.00  0.00    -0.306 N 
ATOM     19  C   UNL     1      21.526   7.917  53.264  1.00  0.00     0.116 A 
ATOM     20  C   UNL     1      22.319   9.277  51.793  1.00  0.00     0.204 A 
ATOM     21  C   UNL     1      21.061   9.159  53.524  1.00  0.00     0.056 A 
ATOM     22  N   UNL     1      21.595  10.001  52.612  1.00  0.00    -0.242 NA
ATOM     23  C   UNL     1      20.153   9.595  54.649  1.00  0.00     0.068 C 
ENDBRANCH  15  18
BRANCH  16  24
ATOM     24  C   UNL     1      23.160   5.634  47.888  1.00  0.00     0.416 C 
ATOM     25  F   UNL     1      22.475   6.639  47.306  1.00  0.00    -0.166 F 
ATOM     26  F   UNL     1      24.307   5.660  47.219  1.00  0.00    -0.166 F 
ATOM     27  F   UNL     1      22.421   4.543  47.601  1.00  0.00    -0.166 F 
ENDBRANCH  16  24
ENDBRANCH  10  12
ENDBRANCH   1   8
BRANCH   6  28
ATOM     28  N   UNL     1      29.135   2.670  55.384  1.00  0.00    -0.324 N 
ATOM     29  H   UNL     1      28.558   2.851  56.218  1.00  0.00     0.170 HD
BRANCH  28  30
ATOM     30  C   UNL     1      30.502   2.955  55.399  1.00  0.00     0.227 A 
ATOM     31  N   UNL     1      31.152   3.877  56.097  1.00  0.00    -0.221 NA
ATOM     32  N   UNL     1      31.100   2.153  54.481  1.00  0.00    -0.213 NA
ATOM     33  C   UNL     1      32.479   3.970  55.889  1.00  0.00     0.117 A 
ATOM     34  C   UNL     1      32.415   2.305  54.286  1.00  0.00     0.077 A 
ATOM     35  C   UNL     1      33.124   3.216  54.985  1.00  0.00     0.049 A 
BRANCH  34  36
ATOM     36  C   UNL     1      33.028   1.380  53.296  1.00  0.00     0.019 A 
ATOM     37  C   UNL     1      32.244   0.643  52.394  1.00  0.00     0.013 A 
ATOM     38  C   UNL     1      34.425   1.207  53.249  1.00  0.00     0.121 A 
ATOM     39  C   UNL     1      32.870  -0.225  51.509  1.00  0.00     0.021 A 
ATOM     40  N   UNL     1      35.034   0.366  52.403  1.00  0.00    -0.264 NA
ATOM     41  C   UNL     1      34.262  -0.307  51.535  1.00  0.00     0.111 A 
ENDBRANCH  34  36
ENDBRANCH  28  30
ENDBRANCH   6  28
TORSDOF 7
ENDMDL
MODEL 9
REMARK VINA RESULT:   -11.202      2.730      5.018
REMARK INTER + INTRA:         -14.899
REMARK INTER:                 -13.290
REMARK INTRA:                  -1.610
REMARK CONF_INDEPENDENT:        2.088
REMARK UNBOUND:                -1.610
REMARK SMILES Cc1cn(-c2cc(NC(=O)c3ccc(C)c(Nc4nccc(-c5cccnc5)n4)c3)cc(C(F)(F)F)c2)cn1
REMARK SMILES IDX 11 1 12 2 13 3 14 4 15 5 16 6 30 7 9 8 10 9 8 10 7 12 6 13
REMARK SMILES IDX 31 14 5 15 32 16 37 17 4 18 3 19 38 20 2 21 39 22 1 23 33 24
REMARK SMILES IDX 34 25 35 26 36 27 17 28 18 30 19 31 29 32 20 33 22 34 21 35
REMARK SMILES IDX 23 36 24 37 28 38 25 39 27 40 26 41
REMARK H PARENT 8 11 17 29
ROOT
ATOM      1  C   UNL     1      28.001   1.324  53.339  1.00  0.00     0.042 A 
ATOM      2  C   UNL     1      27.646   0.616  54.497  1.00  0.00     0.014 A 
ATOM      3  C   UNL     1      28.324  -0.542  54.879  1.00  0.00     0.006 A 
ATOM      4  C   UNL     1      29.321  -1.085  54.085  1.00  0.00    -0.027 A 
ATOM      5  C   UNL     1      30.047  -2.354  54.509  1.00  0.00     0.046 C 
ATOM      6  C   UNL     1      29.608  -0.445  52.880  1.00  0.00     0.045 A 
ATOM      7  C   UNL     1      28.933   0.731  52.528  1.00  0.00     0.040 A 
ENDROOT
BRANCH   1   8
ATOM      8  C   UNL     1      27.260   2.479  52.796  1.00  0.00     0.255 C 
ATOM      9  O   UNL     1      27.551   2.797  51.668  1.00  0.00    -0.269 OA
ATOM     10  N   UNL     1      26.192   2.881  53.500  1.00  0.00    -0.322 N 
ATOM     11  H   UNL     1      26.012   2.400  54.392  1.00  0.00     0.170 HD
BRANCH  10  12
ATOM     12  C   UNL     1      25.306   3.888  53.136  1.00  0.00     0.044 A 
ATOM     13  C   UNL     1      24.989   4.119  51.775  1.00  0.00     0.052 A 
ATOM     14  C   UNL     1      24.797   4.780  54.104  1.00  0.00     0.039 A 
ATOM     15  C   UNL     1      24.091   5.123  51.399  1.00  0.00     0.049 A 
ATOM     16  C   UNL     1      23.865   5.788  53.722  1.00  0.00     0.060 A 
ATOM     17  C   UNL     1      23.556   5.962  52.371  1.00  0.00     0.039 A 
BRANCH  15  18
ATOM     18  N   UNL     1      23.738   5.333  50.058  1.00  0.00    -0.306 N 
ATOM     19  C   UNL     1      22.475   5.544  49.508  1.00  0.00     0.116 A 
ATOM     20  C   UNL     1      24.552   5.281  48.997  1.00  0.00     0.204 A 
ATOM     21  C   UNL     1      22.605   5.611  48.165  1.00  0.00     0.056 A 
ATOM     22  N   UNL     1      23.917   5.476  47.867  1.00  0.00    -0.242 NA
ATOM     23  C   UNL     1      21.525   5.846  47.137  1.00  0.00     0.068 C 
ENDBRANCH  15  18
BRANCH  16  24
ATOM     24  C   UNL     1      23.295   6.680  54.776  1.00  0.00     0.416 C 
ATOM     25  F   UNL     1      23.517   6.279  56.044  1.00  0.00    -0.166 F 
ATOM     26  F   UNL     1      23.879   7.872  54.759  1.00  0.00    -0.166 F 
ATOM     27  F   UNL     1      21.950   6.764  54.705  1.00  0.00    -0.166 F 
ENDBRANCH  16  24
ENDBRANCH  10  12
ENDBRANCH   1   8
BRANCH   6  28
ATOM     28  N   UNL     1      30.717  -0.879  52.142  1.00  0.00    -0.324 N 
ATOM     29  H   UNL     1      30.633  -1.683  51.504  1.00  0.00     0.170 HD
BRANCH  28  30
ATOM     30  C   UNL     1      31.936  -0.213  52.278  1.00  0.00     0.227 A 
ATOM     31  N   UNL     1      33.090  -0.455  51.669  1.00  0.00    -0.221 NA
ATOM     32  N   UNL     1      31.784   0.732  53.242  1.00  0.00    -0.213 NA
ATOM     33  C   UNL     1      34.134   0.319  52.019  1.00  0.00     0.117 A 
ATOM     34  C   UNL     1      32.859   1.455  53.579  1.00  0.00     0.077 A 
ATOM     35  C   UNL     1      34.050   1.258  52.975  1.00  0.00     0.049 A 
BRANCH  34  36
ATOM     36  C   UNL     1      32.632   2.498  54.613  1.00  0.00     0.019 A 
ATOM     37  C   UNL     1      33.504   3.588  54.761  1.00  0.00     0.013 A 
ATOM     38  C   UNL     1      31.533   2.410  55.489  1.00  0.00     0.121 A 
ATOM     39  C   UNL     1      33.256   4.520  55.761  1.00  0.00     0.021 A 
ATOM     40  N   UNL     1      31.293   3.300  56.460  1.00  0.00    -0.264 NA
ATOM     41  C   UNL     1      32.129   4.347  56.563  1.00  0.00     0.111 A 
ENDBRANCH  34  36
ENDBRANCH  28  30
ENDBRANCH   6  28
TORSDOF 7
ENDMDL
MODEL 10
REMARK VINA RESULT:   -11.157      7.033      9.814
REMARK INTER + INTRA:         -14.578
REMARK INTER:                 -13.245
REMARK INTRA:                  -1.332
REMARK CONF_INDEPENDENT:        2.088
REMARK UNBOUND:                -1.332
REMARK SMILES Cc1cn(-c2cc(NC(=O)c3ccc(C)c(Nc4nccc(-c5cccnc5)n4)c3)cc(C(F)(F)F)c2)cn1
REMARK SMILES IDX 11 1 12 2 13 3 14 4 15 5 16 6 30 7 9 8 10 9 8 10 7 12 6 13
REMARK SMILES IDX 31 14 5 15 32 16 37 17 4 18 3 19 38 20 2 21 39 22 1 23 33 24
REMARK SMILES IDX 34 25 35 26 36 27 17 28 18 30 19 31 29 32 20 33 22 34 21 35
REMARK SMILES IDX 23 36 24 37 28 38 25 39 27 40 26 41
REMARK H PARENT 8 11 17 29
ROOT
ATOM      1  C   UNL     1      32.022   3.050  55.014  1.00  0.00     0.042 A 
ATOM      2  C   UNL     1      33.269   3.147  54.378  1.00  0.00     0.014 A 
ATOM      3  C   UNL     1      33.620   2.293  53.331  1.00  0.00     0.006 A 
ATOM      4  C   UNL     1      32.784   1.263  52.934  1.00  0.00    -0.027 A 
ATOM      5  C   UNL     1      33.183   0.334  51.796  1.00  0.00     0.046 C 
ATOM      6  C   UNL     1      31.588   1.096  53.630  1.00  0.00     0.045 A 
ATOM      7  C   UNL     1      31.243   1.979  54.661  1.00  0.00     0.040 A 
ENDROOT
BRANCH   1   8
ATOM      8  C   UNL     1      31.621   3.823  56.205  1.00  0.00     0.255 C 
ATOM      9  O   UNL     1      30.512   4.299  56.165  1.00  0.00    -0.269 OA
ATOM     10  N   UNL     1      32.410   3.702  57.283  1.00  0.00    -0.322 N 
ATOM     11  H   UNL     1      33.264   3.137  57.176  1.00  0.00     0.170 HD
BRANCH  10  12
ATOM     12  C   UNL     1      32.181   4.269  58.530  1.00  0.00     0.044 A 
ATOM     13  C   UNL     1      31.839   5.638  58.655  1.00  0.00     0.052 A 
ATOM     14  C   UNL     1      32.401   3.523  59.709  1.00  0.00     0.039 A 
ATOM     15  C   UNL     1      31.597   6.215  59.905  1.00  0.00     0.049 A 
ATOM     16  C   UNL     1      32.132   4.106  60.980  1.00  0.00     0.060 A 
ATOM     17  C   UNL     1      31.768   5.453  61.056  1.00  0.00     0.039 A 
BRANCH  15  18
ATOM     18  N   UNL     1      31.217   7.559  60.036  1.00  0.00    -0.306 N 
ATOM     19  C   UNL     1      29.957   8.133  59.873  1.00  0.00     0.116 A 
ATOM     20  C   UNL     1      32.025   8.602  60.261  1.00  0.00     0.204 A 
ATOM     21  C   UNL     1      30.082   9.471  60.013  1.00  0.00     0.056 A 
ATOM     22  N   UNL     1      31.377   9.741  60.288  1.00  0.00    -0.242 NA
ATOM     23  C   UNL     1      28.996  10.517  59.941  1.00  0.00     0.068 C 
ENDBRANCH  15  18
BRANCH  16  24
ATOM     24  C   UNL     1      32.316   3.276  62.209  1.00  0.00     0.416 C 
ATOM     25  F   UNL     1      32.010   1.971  62.065  1.00  0.00    -0.166 F 
ATOM     26  F   UNL     1      33.595   3.221  62.561  1.00  0.00    -0.166 F 
ATOM     27  F   UNL     1      31.519   3.674  63.222  1.00  0.00    -0.166 F 
ENDBRANCH  16  24
ENDBRANCH  10  12
ENDBRANCH   1   8
BRANCH   6  28
ATOM     28  N   UNL     1      30.657   0.169  53.144  1.00  0.00    -0.324 N 
ATOM     29  H   UNL     1      30.927  -0.503  52.412  1.00  0.00     0.170 HD
BRANCH  28  30
ATOM     30  C   UNL     1      29.360   0.164  53.660  1.00  0.00     0.227 A 
ATOM     31  N   UNL     1      28.822  -0.659  54.552  1.00  0.00    -0.221 NA
ATOM     32  N   UNL     1      28.659   1.136  53.022  1.00  0.00    -0.213 NA
ATOM     33  C   UNL     1      27.521  -0.468  54.844  1.00  0.00     0.117 A 
ATOM     34  C   UNL     1      27.362   1.267  53.323  1.00  0.00     0.077 A 
ATOM     35  C   UNL     1      26.773   0.466  54.236  1.00  0.00     0.049 A 
BRANCH  34  36
ATOM     36  C   UNL     1      26.648   2.367  52.624  1.00  0.00     0.019 A 
ATOM     37  C   UNL     1      25.704   3.169  53.286  1.00  0.00     0.013 A 
ATOM     38  C   UNL     1      26.893   2.627  51.261  1.00  0.00     0.121 A 
ATOM     39  C   UNL     1      25.049   4.167  52.575  1.00  0.00     0.021 A 
ATOM     40  N   UNL     1      26.259   3.582  50.569  1.00  0.00    -0.264 NA
ATOM     41  C   UNL     1      25.380   4.350  51.233  1.00  0.00     0.111 A 
ENDBRANCH  34  36
ENDBRANCH  28  30
ENDBRANCH   6  28
TORSDOF 7
ENDMDL
MODEL 11
REMARK VINA RESULT:   -11.120      1.769      2.641
REMARK INTER + INTRA:         -14.398
REMARK INTER:                 -13.208
REMARK INTRA:                  -1.189
REMARK CONF_INDEPENDENT:        2.088
REMARK UNBOUND:                -1.189
REMARK SMILES Cc1cn(-c2cc(NC(=O)c3ccc(C)c(Nc4nccc(-c5cccnc5)n4)c3)cc(C(F)(F)F)c2)cn1
REMARK SMILES IDX 11 1 12 2 13 3 14 4 15 5 16 6 30 7 9 8 10 9 8 10 7 12 6 13
REMARK SMILES IDX 31 14 5 15 32 16 37 17 4 18 3 19 38 20 2 21 39 22 1 23 33 24
REMARK SMILES IDX 34 25 35 26 36 27 17 28 18 30 19 31 29 32 20 33 22 34 21 35
REMARK SMILES IDX 23 36 24 37 28 38 25 39 27 40 26 41
REMARK H PARENT 8 11 17 29
ROOT
ATOM      1  C   UNL     1      27.008   2.412  52.517  1.00  0.00     0.042 A 
ATOM      2  C   UNL     1      27.131   1.326  51.638  1.00  0.00     0.014 A 
ATOM      3  C   UNL     1      28.065   0.313  51.860  1.00  0.00     0.006 A 
ATOM      4  C   UNL     1      28.965   0.384  52.911  1.00  0.00    -0.027 A 
ATOM      5  C   UNL     1      29.985  -0.724  53.136  1.00  0.00     0.046 C 
ATOM      6  C   UNL     1      28.917   1.512  53.728  1.00  0.00     0.045 A 
ATOM      7  C   UNL     1      27.955   2.505  53.504  1.00  0.00     0.040 A 
ENDROOT
BRANCH   1   8
ATOM      8  C   UNL     1      26.140   3.584  52.293  1.00  0.00     0.255 C 
ATOM      9  O   UNL     1      25.987   3.904  51.139  1.00  0.00    -0.269 OA
ATOM     10  N   UNL     1      25.426   4.003  53.349  1.00  0.00    -0.322 N 
ATOM     11  H   UNL     1      25.588   3.520  54.244  1.00  0.00     0.170 HD
BRANCH  10  12
ATOM     12  C   UNL     1      24.489   5.028  53.347  1.00  0.00     0.044 A 
ATOM     13  C   UNL     1      23.769   5.359  54.521  1.00  0.00     0.052 A 
ATOM     14  C   UNL     1      24.146   5.684  52.144  1.00  0.00     0.039 A 
ATOM     15  C   UNL     1      22.832   6.395  54.531  1.00  0.00     0.049 A 
ATOM     16  C   UNL     1      23.206   6.754  52.160  1.00  0.00     0.060 A 
ATOM     17  C   UNL     1      22.541   7.067  53.348  1.00  0.00     0.039 A 
BRANCH  15  18
ATOM     18  N   UNL     1      22.144   6.758  55.699  1.00  0.00    -0.306 N 
ATOM     19  C   UNL     1      22.648   6.973  56.980  1.00  0.00     0.116 A 
ATOM     20  C   UNL     1      20.820   6.886  55.842  1.00  0.00     0.204 A 
ATOM     21  C   UNL     1      21.608   7.219  57.807  1.00  0.00     0.056 A 
ATOM     22  N   UNL     1      20.476   7.192  57.069  1.00  0.00    -0.242 NA
ATOM     23  C   UNL     1      21.649   7.529  59.284  1.00  0.00     0.068 C 
ENDBRANCH  15  18
BRANCH  16  24
ATOM     24  C   UNL     1      22.906   7.470  50.883  1.00  0.00     0.416 C 
ATOM     25  F   UNL     1      23.988   7.817  50.157  1.00  0.00    -0.166 F 
ATOM     26  F   UNL     1      22.249   6.684  50.039  1.00  0.00    -0.166 F 
ATOM     27  F   UNL     1      22.277   8.645  51.090  1.00  0.00    -0.166 F 
ENDBRANCH  16  24
ENDBRANCH  10  12
ENDBRANCH   1   8
BRANCH   6  28
ATOM     28  N   UNL     1      29.703   1.529  54.887  1.00  0.00    -0.324 N 
ATOM     29  H   UNL     1      29.327   1.168  55.775  1.00  0.00     0.170 HD
BRANCH  28  30
ATOM     30  C   UNL     1      31.001   2.040  54.830  1.00  0.00     0.227 A 
ATOM     31  N   UNL     1      31.534   3.039  55.522  1.00  0.00    -0.221 NA
ATOM     32  N   UNL     1      31.662   1.377  53.846  1.00  0.00    -0.213 NA
ATOM     33  C   UNL     1      32.810   3.360  55.237  1.00  0.00     0.117 A 
ATOM     34  C   UNL     1      32.917   1.754  53.577  1.00  0.00     0.077 A 
ATOM     35  C   UNL     1      33.510   2.752  54.266  1.00  0.00     0.049 A 
BRANCH  34  36
ATOM     36  C   UNL     1      33.608   0.974  52.517  1.00  0.00     0.019 A 
ATOM     37  C   UNL     1      32.944   0.578  51.344  1.00  0.00     0.013 A 
ATOM     38  C   UNL     1      34.956   0.596  52.670  1.00  0.00     0.121 A 
ATOM     39  C   UNL     1      33.633  -0.171  50.399  1.00  0.00     0.021 A 
ATOM     40  N   UNL     1      35.623  -0.133  51.767  1.00  0.00    -0.264 NA
ATOM     41  C   UNL     1      34.972  -0.476  50.643  1.00  0.00     0.111 A 
ENDBRANCH  34  36
ENDBRANCH  28  30
ENDBRANCH   6  28
TORSDOF 7
ENDMDL
MODEL 12
REMARK VINA RESULT:   -11.088      3.913     11.676
REMARK INTER + INTRA:         -14.272
REMARK INTER:                 -13.176
REMARK INTRA:                  -1.096
REMARK CONF_INDEPENDENT:        2.088
REMARK UNBOUND:                -1.096
REMARK SMILES Cc1cn(-c2cc(NC(=O)c3ccc(C)c(Nc4nccc(-c5cccnc5)n4)c3)cc(C(F)(F)F)c2)cn1
REMARK SMILES IDX 11 1 12 2 13 3 14 4 15 5 16 6 30 7 9 8 10 9 8 10 7 12 6 13
REMARK SMILES IDX 31 14 5 15 32 16 37 17 4 18 3 19 38 20 2 21 39 22 1 23 33 24
REMARK SMILES IDX 34 25 35 26 36 27 17 28 18 30 19 31 29 32 20 33 22 34 21 35
REMARK SMILES IDX 23 36 24 37 28 38 25 39 27 40 26 41
REMARK H PARENT 8 11 17 29
ROOT
ATOM      1  C   UNL     1      25.775   3.500  51.882  1.00  0.00     0.042 A 
ATOM      2  C   UNL     1      24.900   3.294  50.805  1.00  0.00     0.014 A 
ATOM      3  C   UNL     1      23.566   3.697  50.864  1.00  0.00     0.006 A 
ATOM      4  C   UNL     1      23.030   4.242  52.020  1.00  0.00    -0.027 A 
ATOM      5  C   UNL     1      21.571   4.670  52.073  1.00  0.00     0.046 C 
ATOM      6  C   UNL     1      23.868   4.353  53.129  1.00  0.00     0.045 A 
ATOM      7  C   UNL     1      25.211   3.966  53.041  1.00  0.00     0.040 A 
ENDROOT
BRANCH   1   8
ATOM      8  C   UNL     1      27.160   2.993  51.954  1.00  0.00     0.255 C 
ATOM      9  O   UNL     1      27.723   2.874  50.893  1.00  0.00    -0.269 OA
ATOM     10  N   UNL     1      27.717   2.964  53.174  1.00  0.00    -0.322 N 
ATOM     11  H   UNL     1      27.118   3.231  53.968  1.00  0.00     0.170 HD
BRANCH  10  12
ATOM     12  C   UNL     1      29.027   2.606  53.464  1.00  0.00     0.044 A 
ATOM     13  C   UNL     1      29.713   1.652  52.671  1.00  0.00     0.052 A 
ATOM     14  C   UNL     1      29.664   3.093  54.626  1.00  0.00     0.039 A 
ATOM     15  C   UNL     1      31.034   1.293  52.949  1.00  0.00     0.049 A 
ATOM     16  C   UNL     1      31.018   2.743  54.895  1.00  0.00     0.060 A 
ATOM     17  C   UNL     1      31.667   1.822  54.070  1.00  0.00     0.039 A 
BRANCH  15  18
ATOM     18  N   UNL     1      31.736   0.381  52.146  1.00  0.00    -0.306 N 
ATOM     19  C   UNL     1      31.316  -0.269  50.987  1.00  0.00     0.116 A 
ATOM     20  C   UNL     1      32.949  -0.130  52.386  1.00  0.00     0.204 A 
ATOM     21  C   UNL     1      32.292  -1.119  50.602  1.00  0.00     0.056 A 
ATOM     22  N   UNL     1      33.319  -0.994  51.472  1.00  0.00    -0.242 NA
ATOM     23  C   UNL     1      32.311  -2.028  49.397  1.00  0.00     0.068 C 
ENDBRANCH  15  18
BRANCH  16  24
ATOM     24  C   UNL     1      31.687   3.321  56.099  1.00  0.00     0.416 C 
ATOM     25  F   UNL     1      31.083   4.408  56.620  1.00  0.00    -0.166 F 
ATOM     26  F   UNL     1      31.650   2.472  57.120  1.00  0.00    -0.166 F 
ATOM     27  F   UNL     1      32.937   3.754  55.834  1.00  0.00    -0.166 F 
ENDBRANCH  16  24
ENDBRANCH  10  12
ENDBRANCH   1   8
BRANCH   6  28
ATOM     28  N   UNL     1      23.398   5.047  54.252  1.00  0.00    -0.324 N 
ATOM     29  H   UNL     1      22.417   4.949  54.549  1.00  0.00     0.170 HD
BRANCH  28  30
ATOM     30  C   UNL     1      24.270   5.871  54.965  1.00  0.00     0.227 A 
ATOM     31  N   UNL     1      25.531   6.183  54.692  1.00  0.00    -0.221 NA
ATOM     32  N   UNL     1      23.629   6.273  56.093  1.00  0.00    -0.213 NA
ATOM     33  C   UNL     1      26.165   6.973  55.579  1.00  0.00     0.117 A 
ATOM     34  C   UNL     1      24.310   7.030  56.960  1.00  0.00     0.077 A 
ATOM     35  C   UNL     1      25.589   7.389  56.718  1.00  0.00     0.049 A 
BRANCH  34  36
ATOM     36  C   UNL     1      23.553   7.472  58.160  1.00  0.00     0.019 A 
ATOM     37  C   UNL     1      24.113   8.352  59.100  1.00  0.00     0.013 A 
ATOM     38  C   UNL     1      22.246   7.003  58.394  1.00  0.00     0.121 A 
ATOM     39  C   UNL     1      23.368   8.712  60.216  1.00  0.00     0.021 A 
ATOM     40  N   UNL     1      21.525   7.340  59.471  1.00  0.00    -0.264 NA
ATOM     41  C   UNL     1      22.076   8.203  60.341  1.00  0.00     0.111 A 
ENDBRANCH  34  36
ENDBRANCH  28  30
ENDBRANCH   6  28
TORSDOF 7
ENDMDL
MODEL 13
REMARK VINA RESULT:   -11.068      3.592     12.294
REMARK INTER + INTRA:         -14.416
REMARK INTER:                 -13.156
REMARK INTRA:                  -1.260
REMARK CONF_INDEPENDENT:        2.088
REMARK UNBOUND:                -1.260
REMARK SMILES Cc1cn(-c2cc(NC(=O)c3ccc(C)c(Nc4nccc(-c5cccnc5)n4)c3)cc(C(F)(F)F)c2)cn1
REMARK SMILES IDX 11 1 12 2 13 3 14 4 15 5 16 6 30 7 9 8 10 9 8 10 7 12 6 13
REMARK SMILES IDX 31 14 5 15 32 16 37 17 4 18 3 19 38 20 2 21 39 22 1 23 33 24
REMARK SMILES IDX 34 25 35 26 36 27 17 28 18 30 19 31 29 32 20 33 22 34 21 35
REMARK SMILES IDX 23 36 24 37 28 38 25 39 27 40 26 41
REMARK H PARENT 8 11 17 29
ROOT
ATOM      1  C   UNL     1      25.720   3.725  51.924  1.00  0.00     0.042 A 
ATOM      2  C   UNL     1      25.282   4.370  50.758  1.00  0.00     0.014 A 
ATOM      3  C   UNL     1      24.106   5.121  50.740  1.00  0.00     0.006 A 
ATOM      4  C   UNL     1      23.282   5.192  51.852  1.00  0.00    -0.027 A 
ATOM      5  C   UNL     1      21.999   6.009  51.816  1.00  0.00     0.046 C 
ATOM      6  C   UNL     1      23.659   4.468  52.982  1.00  0.00     0.045 A 
ATOM      7  C   UNL     1      24.855   3.740  52.988  1.00  0.00     0.040 A 
ENDROOT
BRANCH   1   8
ATOM      8  C   UNL     1      26.876   2.811  51.999  1.00  0.00     0.255 C 
ATOM      9  O   UNL     1      27.629   2.849  51.057  1.00  0.00    -0.269 OA
ATOM     10  N   UNL     1      27.100   2.236  53.191  1.00  0.00    -0.322 N 
ATOM     11  H   UNL     1      26.415   2.423  53.936  1.00  0.00     0.170 HD
BRANCH  10  12
ATOM     12  C   UNL     1      28.172   1.412  53.510  1.00  0.00     0.044 A 
ATOM     13  C   UNL     1      29.481   1.715  53.063  1.00  0.00     0.052 A 
ATOM     14  C   UNL     1      27.961   0.190  54.186  1.00  0.00     0.039 A 
ATOM     15  C   UNL     1      30.567   0.897  53.388  1.00  0.00     0.049 A 
ATOM     16  C   UNL     1      29.071  -0.631  54.535  1.00  0.00     0.060 A 
ATOM     17  C   UNL     1      30.350  -0.279  54.100  1.00  0.00     0.039 A 
BRANCH  15  18
ATOM     18  N   UNL     1      31.874   1.211  52.986  1.00  0.00    -0.306 N 
ATOM     19  C   UNL     1      32.616   0.683  51.931  1.00  0.00     0.116 A 
ATOM     20  C   UNL     1      32.727   2.036  53.605  1.00  0.00     0.204 A 
ATOM     21  C   UNL     1      33.855   1.220  51.976  1.00  0.00     0.056 A 
ATOM     22  N   UNL     1      33.894   2.088  53.010  1.00  0.00    -0.242 NA
ATOM     23  C   UNL     1      35.009   0.974  51.034  1.00  0.00     0.068 C 
ENDBRANCH  15  18
BRANCH  16  24
ATOM     24  C   UNL     1      28.825  -1.889  55.303  1.00  0.00     0.416 C 
ATOM     25  F   UNL     1      27.960  -2.748  54.727  1.00  0.00    -0.166 F 
ATOM     26  F   UNL     1      29.929  -2.623  55.383  1.00  0.00    -0.166 F 
ATOM     27  F   UNL     1      28.274  -1.653  56.512  1.00  0.00    -0.166 F 
ENDBRANCH  16  24
ENDBRANCH  10  12
ENDBRANCH   1   8
BRANCH   6  28
ATOM     28  N   UNL     1      22.931   4.653  54.165  1.00  0.00    -0.324 N 
ATOM     29  H   UNL     1      22.286   3.923  54.497  1.00  0.00     0.170 HD
BRANCH  28  30
ATOM     30  C   UNL     1      23.089   5.835  54.891  1.00  0.00     0.227 A 
ATOM     31  N   UNL     1      24.118   6.227  55.631  1.00  0.00    -0.221 NA
ATOM     32  N   UNL     1      21.932   6.540  54.786  1.00  0.00    -0.213 NA
ATOM     33  C   UNL     1      23.992   7.407  56.267  1.00  0.00     0.117 A 
ATOM     34  C   UNL     1      21.842   7.691  55.463  1.00  0.00     0.077 A 
ATOM     35  C   UNL     1      22.869   8.141  56.215  1.00  0.00     0.049 A 
BRANCH  34  36
ATOM     36  C   UNL     1      20.571   8.440  55.288  1.00  0.00     0.019 A 
ATOM     37  C   UNL     1      19.900   8.473  54.055  1.00  0.00     0.013 A 
ATOM     38  C   UNL     1      20.009   9.157  56.363  1.00  0.00     0.121 A 
ATOM     39  C   UNL     1      18.729   9.211  53.943  1.00  0.00     0.021 A 
ATOM     40  N   UNL     1      18.885   9.876  56.259  1.00  0.00    -0.264 NA
ATOM     41  C   UNL     1      18.250   9.870  55.076  1.00  0.00     0.111 A 
ENDBRANCH  34  36
ENDBRANCH  28  30
ENDBRANCH   6  28
TORSDOF 7
ENDMDL
MODEL 14
REMARK VINA RESULT:   -10.958      3.339      5.387
REMARK INTER + INTRA:         -14.118
REMARK INTER:                 -13.046
REMARK INTRA:                  -1.073
REMARK CONF_INDEPENDENT:        2.088
REMARK UNBOUND:                -1.073
REMARK SMILES Cc1cn(-c2cc(NC(=O)c3ccc(C)c(Nc4nccc(-c5cccnc5)n4)c3)cc(C(F)(F)F)c2)cn1
REMARK SMILES IDX 11 1 12 2 13 3 14 4 15 5 16 6 30 7 9 8 10 9 8 10 7 12 6 13
REMARK SMILES IDX 31 14 5 15 32 16 37 17 4 18 3 19 38 20 2 21 39 22 1 23 33 24
REMARK SMILES IDX 34 25 35 26 36 27 17 28 18 30 19 31 29 32 20 33 22 34 21 35
REMARK SMILES IDX 23 36 24 37 28 38 25 39 27 40 26 41
REMARK H PARENT 8 11 17 29
ROOT
ATOM      1  C   UNL     1      27.622   1.993  52.421  1.00  0.00     0.042 A 
ATOM      2  C   UNL     1      27.895   0.863  51.637  1.00  0.00     0.014 A 
ATOM      3  C   UNL     1      28.883  -0.054  52.001  1.00  0.00     0.006 A 
ATOM      4  C   UNL     1      29.689   0.161  53.107  1.00  0.00    -0.027 A 
ATOM      5  C   UNL     1      30.768  -0.844  53.488  1.00  0.00     0.046 C 
ATOM      6  C   UNL     1      29.492   1.335  53.832  1.00  0.00     0.045 A 
ATOM      7  C   UNL     1      28.479   2.230  53.465  1.00  0.00     0.040 A 
ENDROOT
BRANCH   1   8
ATOM      8  C   UNL     1      26.689   3.074  52.047  1.00  0.00     0.255 C 
ATOM      9  O   UNL     1      26.564   3.263  50.862  1.00  0.00    -0.269 OA
ATOM     10  N   UNL     1      25.907   3.547  53.029  1.00  0.00    -0.322 N 
ATOM     11  H   UNL     1      26.063   3.169  53.974  1.00  0.00     0.170 HD
BRANCH  10  12
ATOM     12  C   UNL     1      24.905   4.499  52.888  1.00  0.00     0.044 A 
ATOM     13  C   UNL     1      24.167   4.949  54.010  1.00  0.00     0.052 A 
ATOM     14  C   UNL     1      24.519   4.950  51.607  1.00  0.00     0.039 A 
ATOM     15  C   UNL     1      23.164   5.914  53.880  1.00  0.00     0.049 A 
ATOM     16  C   UNL     1      23.513   5.950  51.479  1.00  0.00     0.060 A 
ATOM     17  C   UNL     1      22.830   6.388  52.615  1.00  0.00     0.039 A 
BRANCH  15  18
ATOM     18  N   UNL     1      22.456   6.398  54.990  1.00  0.00    -0.306 N 
ATOM     19  C   UNL     1      22.903   6.597  56.295  1.00  0.00     0.116 A 
ATOM     20  C   UNL     1      21.150   6.686  55.044  1.00  0.00     0.204 A 
ATOM     21  C   UNL     1      21.852   6.994  57.045  1.00  0.00     0.056 A 
ATOM     22  N   UNL     1      20.772   7.075  56.237  1.00  0.00    -0.242 NA
ATOM     23  C   UNL     1      21.840   7.350  58.512  1.00  0.00     0.068 C 
ENDBRANCH  15  18
BRANCH  16  24
ATOM     24  C   UNL     1      23.166   6.453  50.115  1.00  0.00     0.416 C 
ATOM     25  F   UNL     1      21.991   6.010  49.626  1.00  0.00    -0.166 F 
ATOM     26  F   UNL     1      22.982   7.768  50.124  1.00  0.00    -0.166 F 
ATOM     27  F   UNL     1      24.060   6.064  49.182  1.00  0.00    -0.166 F 
ENDBRANCH  16  24
ENDBRANCH  10  12
ENDBRANCH   1   8
BRANCH   6  28
ATOM     28  N   UNL     1      30.181   1.495  55.041  1.00  0.00    -0.324 N 
ATOM     29  H   UNL     1      29.901   0.956  55.873  1.00  0.00     0.170 HD
BRANCH  28  30
ATOM     30  C   UNL     1      31.249   2.391  55.110  1.00  0.00     0.227 A 
ATOM     31  N   UNL     1      32.119   2.723  54.164  1.00  0.00    -0.221 NA
ATOM     32  N   UNL     1      31.323   2.848  56.387  1.00  0.00    -0.213 NA
ATOM     33  C   UNL     1      33.090   3.589  54.512  1.00  0.00     0.117 A 
ATOM     34  C   UNL     1      32.324   3.681  56.693  1.00  0.00     0.077 A 
ATOM     35  C   UNL     1      33.224   4.063  55.761  1.00  0.00     0.049 A 
BRANCH  34  36
ATOM     36  C   UNL     1      32.340   4.179  58.093  1.00  0.00     0.019 A 
ATOM     37  C   UNL     1      31.941   5.487  58.413  1.00  0.00     0.013 A 
ATOM     38  C   UNL     1      32.775   3.347  59.143  1.00  0.00     0.121 A 
ATOM     39  C   UNL     1      32.001   5.906  59.736  1.00  0.00     0.021 A 
ATOM     40  N   UNL     1      32.842   3.748  60.419  1.00  0.00    -0.264 NA
ATOM     41  C   UNL     1      32.431   4.995  60.700  1.00  0.00     0.111 A 
ENDBRANCH  34  36
ENDBRANCH  28  30
ENDBRANCH   6  28
TORSDOF 7
ENDMDL
MODEL 15
REMARK VINA RESULT:   -10.955      2.798      4.545
REMARK INTER + INTRA:         -14.206
REMARK INTER:                 -13.043
REMARK INTRA:                  -1.163
REMARK CONF_INDEPENDENT:        2.088
REMARK UNBOUND:                -1.163
REMARK SMILES Cc1cn(-c2cc(NC(=O)c3ccc(C)c(Nc4nccc(-c5cccnc5)n4)c3)cc(C(F)(F)F)c2)cn1
REMARK SMILES IDX 11 1 12 2 13 3 14 4 15 5 16 6 30 7 9 8 10 9 8 10 7 12 6 13
REMARK SMILES IDX 31 14 5 15 32 16 37 17 4 18 3 19 38 20 2 21 39 22 1 23 33 24
REMARK SMILES IDX 34 25 35 26 36 27 17 28 18 30 19 31 29 32 20 33 22 34 21 35
REMARK SMILES IDX 23 36 24 37 28 38 25 39 27 40 26 41
REMARK H PARENT 8 11 17 29
ROOT
ATOM      1  C   UNL     1      29.589   1.268  52.619  1.00  0.00     0.042 A 
ATOM      2  C   UNL     1      30.193   1.079  53.871  1.00  0.00     0.014 A 
ATOM      3  C   UNL     1      31.545   0.749  53.983  1.00  0.00     0.006 A 
ATOM      4  C   UNL     1      32.322   0.513  52.861  1.00  0.00    -0.027 A 
ATOM      5  C   UNL     1      33.793   0.145  52.999  1.00  0.00     0.046 C 
ATOM      6  C   UNL     1      31.701   0.597  51.616  1.00  0.00     0.045 A 
ATOM      7  C   UNL     1      30.350   0.955  51.524  1.00  0.00     0.040 A 
ENDROOT
BRANCH   1   8
ATOM      8  C   UNL     1      28.146   1.493  52.405  1.00  0.00     0.255 C 
ATOM      9  O   UNL     1      27.429   0.564  52.689  1.00  0.00    -0.269 OA
ATOM     10  N   UNL     1      27.773   2.759  52.166  1.00  0.00    -0.322 N 
ATOM     11  H   UNL     1      28.523   3.460  52.085  1.00  0.00     0.170 HD
BRANCH  10  12
ATOM     12  C   UNL     1      26.468   3.211  52.018  1.00  0.00     0.044 A 
ATOM     13  C   UNL     1      25.696   2.847  50.886  1.00  0.00     0.052 A 
ATOM     14  C   UNL     1      25.923   4.141  52.930  1.00  0.00     0.039 A 
ATOM     15  C   UNL     1      24.379   3.289  50.733  1.00  0.00     0.049 A 
ATOM     16  C   UNL     1      24.573   4.573  52.784  1.00  0.00     0.060 A 
ATOM     17  C   UNL     1      23.837   4.165  51.669  1.00  0.00     0.039 A 
BRANCH  15  18
ATOM     18  N   UNL     1      23.593   2.900  49.639  1.00  0.00    -0.306 N 
ATOM     19  C   UNL     1      22.910   1.703  49.432  1.00  0.00     0.116 A 
ATOM     20  C   UNL     1      23.409   3.582  48.502  1.00  0.00     0.204 A 
ATOM     21  C   UNL     1      22.359   1.739  48.199  1.00  0.00     0.056 A 
ATOM     22  N   UNL     1      22.655   2.936  47.646  1.00  0.00    -0.242 NA
ATOM     23  C   UNL     1      21.510   0.685  47.530  1.00  0.00     0.068 C 
ENDBRANCH  15  18
BRANCH  16  24
ATOM     24  C   UNL     1      24.002   5.511  53.797  1.00  0.00     0.416 C 
ATOM     25  F   UNL     1      23.541   4.924  54.920  1.00  0.00    -0.166 F 
ATOM     26  F   UNL     1      24.937   6.323  54.276  1.00  0.00    -0.166 F 
ATOM     27  F   UNL     1      22.929   6.180  53.329  1.00  0.00    -0.166 F 
ENDBRANCH  16  24
ENDBRANCH  10  12
ENDBRANCH   1   8
BRANCH   6  28
ATOM     28  N   UNL     1      32.499   0.523  50.467  1.00  0.00    -0.324 N 
ATOM     29  H   UNL     1      32.625   1.352  49.868  1.00  0.00     0.170 HD
BRANCH  28  30
ATOM     30  C   UNL     1      33.123  -0.682  50.140  1.00  0.00     0.227 A 
ATOM     31  N   UNL     1      32.594  -1.897  50.055  1.00  0.00    -0.221 NA
ATOM     32  N   UNL     1      34.448  -0.432  49.985  1.00  0.00    -0.213 NA
ATOM     33  C   UNL     1      33.437  -2.905  49.761  1.00  0.00     0.117 A 
ATOM     34  C   UNL     1      35.251  -1.470  49.725  1.00  0.00     0.077 A 
ATOM     35  C   UNL     1      34.758  -2.723  49.611  1.00  0.00     0.049 A 
BRANCH  34  36
ATOM     36  C   UNL     1      36.687  -1.139  49.529  1.00  0.00     0.019 A 
ATOM     37  C   UNL     1      37.694  -2.102  49.702  1.00  0.00     0.013 A 
ATOM     38  C   UNL     1      37.078   0.167  49.177  1.00  0.00     0.121 A 
ATOM     39  C   UNL     1      39.021  -1.729  49.530  1.00  0.00     0.021 A 
ATOM     40  N   UNL     1      38.356   0.535  49.018  1.00  0.00    -0.264 NA
ATOM     41  C   UNL     1      39.297  -0.412  49.164  1.00  0.00     0.111 A 
ENDBRANCH  34  36
ENDBRANCH  28  30
ENDBRANCH   6  28
TORSDOF 7
ENDMDL
MODEL 16
REMARK VINA RESULT:   -10.898      3.571     12.067
REMARK INTER + INTRA:         -14.316
REMARK INTER:                 -12.986
REMARK INTRA:                  -1.330
REMARK CONF_INDEPENDENT:        2.088
REMARK UNBOUND:                -1.330
REMARK SMILES Cc1cn(-c2cc(NC(=O)c3ccc(C)c(Nc4nccc(-c5cccnc5)n4)c3)cc(C(F)(F)F)c2)cn1
REMARK SMILES IDX 11 1 12 2 13 3 14 4 15 5 16 6 30 7 9 8 10 9 8 10 7 12 6 13
REMARK SMILES IDX 31 14 5 15 32 16 37 17 4 18 3 19 38 20 2 21 39 22 1 23 33 24
REMARK SMILES IDX 34 25 35 26 36 27 17 28 18 30 19 31 29 32 20 33 22 34 21 35
REMARK SMILES IDX 23 36 24 37 28 38 25 39 27 40 26 41
REMARK H PARENT 8 11 17 29
ROOT
ATOM      1  C   UNL     1      25.618   3.676  51.897  1.00  0.00     0.042 A 
ATOM      2  C   UNL     1      24.858   3.819  50.726  1.00  0.00     0.014 A 
ATOM      3  C   UNL     1      23.523   4.224  50.770  1.00  0.00     0.006 A 
ATOM      4  C   UNL     1      22.872   4.420  51.977  1.00  0.00    -0.027 A 
ATOM      5  C   UNL     1      21.413   4.854  52.011  1.00  0.00     0.046 C 
ATOM      6  C   UNL     1      23.592   4.179  53.147  1.00  0.00     0.045 A 
ATOM      7  C   UNL     1      24.938   3.797  53.081  1.00  0.00     0.040 A 
ENDROOT
BRANCH   1   8
ATOM      8  C   UNL     1      26.989   3.133  51.951  1.00  0.00     0.255 C 
ATOM      9  O   UNL     1      27.564   3.068  50.892  1.00  0.00    -0.269 OA
ATOM     10  N   UNL     1      27.530   3.013  53.173  1.00  0.00    -0.322 N 
ATOM     11  H   UNL     1      26.927   3.243  53.976  1.00  0.00     0.170 HD
BRANCH  10  12
ATOM     12  C   UNL     1      28.828   2.605  53.454  1.00  0.00     0.044 A 
ATOM     13  C   UNL     1      29.458   1.598  52.682  1.00  0.00     0.052 A 
ATOM     14  C   UNL     1      29.505   3.100  54.591  1.00  0.00     0.039 A 
ATOM     15  C   UNL     1      30.767   1.189  52.951  1.00  0.00     0.049 A 
ATOM     16  C   UNL     1      30.846   2.698  54.850  1.00  0.00     0.060 A 
ATOM     17  C   UNL     1      31.440   1.724  54.045  1.00  0.00     0.039 A 
BRANCH  15  18
ATOM     18  N   UNL     1      31.414   0.223  52.167  1.00  0.00    -0.306 N 
ATOM     19  C   UNL     1      32.718   0.224  51.675  1.00  0.00     0.116 A 
ATOM     20  C   UNL     1      30.868  -0.881  51.643  1.00  0.00     0.204 A 
ATOM     21  C   UNL     1      32.877  -0.869  50.897  1.00  0.00     0.056 A 
ATOM     22  N   UNL     1      31.718  -1.564  50.916  1.00  0.00    -0.242 NA
ATOM     23  C   UNL     1      34.118  -1.313  50.161  1.00  0.00     0.068 C 
ENDBRANCH  15  18
BRANCH  16  24
ATOM     24  C   UNL     1      31.560   3.283  56.026  1.00  0.00     0.416 C 
ATOM     25  F   UNL     1      31.650   2.472  57.099  1.00  0.00    -0.166 F 
ATOM     26  F   UNL     1      32.838   3.508  55.744  1.00  0.00    -0.166 F 
ATOM     27  F   UNL     1      30.938   4.377  56.511  1.00  0.00    -0.166 F 
ENDBRANCH  16  24
ENDBRANCH  10  12
ENDBRANCH   1   8
BRANCH   6  28
ATOM     28  N   UNL     1      23.008   4.526  54.372  1.00  0.00    -0.324 N 
ATOM     29  H   UNL     1      22.441   3.840  54.889  1.00  0.00     0.170 HD
BRANCH  28  30
ATOM     30  C   UNL     1      23.203   5.809  54.887  1.00  0.00     0.227 A 
ATOM     31  N   UNL     1      24.095   6.222  55.778  1.00  0.00    -0.221 NA
ATOM     32  N   UNL     1      22.237   6.611  54.369  1.00  0.00    -0.213 NA
ATOM     33  C   UNL     1      24.036   7.519  56.137  1.00  0.00     0.117 A 
ATOM     34  C   UNL     1      22.199   7.884  54.780  1.00  0.00     0.077 A 
ATOM     35  C   UNL     1      23.097   8.356  55.672  1.00  0.00     0.049 A 
BRANCH  34  36
ATOM     36  C   UNL     1      21.147   8.729  54.158  1.00  0.00     0.019 A 
ATOM     37  C   UNL     1      19.788   8.379  54.224  1.00  0.00     0.013 A 
ATOM     38  C   UNL     1      21.491   9.907  53.466  1.00  0.00     0.121 A 
ATOM     39  C   UNL     1      18.851   9.194  53.602  1.00  0.00     0.021 A 
ATOM     40  N   UNL     1      20.593  10.692  52.858  1.00  0.00    -0.264 NA
ATOM     41  C   UNL     1      19.298  10.347  52.959  1.00  0.00     0.111 A 
ENDBRANCH  34  36
ENDBRANCH  28  30
ENDBRANCH   6  28
TORSDOF 7
ENDMDL
MODEL 17
REMARK VINA RESULT:   -10.867      8.346     15.251
REMARK INTER + INTRA:         -14.267
REMARK INTER:                 -12.955
REMARK INTRA:                  -1.312
REMARK CONF_INDEPENDENT:        2.088
REMARK UNBOUND:                -1.312
REMARK SMILES Cc1cn(-c2cc(NC(=O)c3ccc(C)c(Nc4nccc(-c5cccnc5)n4)c3)cc(C(F)(F)F)c2)cn1
REMARK SMILES IDX 11 1 12 2 13 3 14 4 15 5 16 6 30 7 9 8 10 9 8 10 7 12 6 13
REMARK SMILES IDX 31 14 5 15 32 16 37 17 4 18 3 19 38 20 2 21 39 22 1 23 33 24
REMARK SMILES IDX 34 25 35 26 36 27 17 28 18 30 19 31 29 32 20 33 22 34 21 35
REMARK SMILES IDX 23 36 24 37 28 38 25 39 27 40 26 41
REMARK H PARENT 8 11 17 29
ROOT
ATOM      1  C   UNL     1      35.968  -1.711  49.308  1.00  0.00     0.042 A 
ATOM      2  C   UNL     1      35.172  -2.860  49.182  1.00  0.00     0.014 A 
ATOM      3  C   UNL     1      33.795  -2.818  49.408  1.00  0.00     0.006 A 
ATOM      4  C   UNL     1      33.174  -1.660  49.847  1.00  0.00    -0.027 A 
ATOM      5  C   UNL     1      31.673  -1.632  50.097  1.00  0.00     0.046 C 
ATOM      6  C   UNL     1      33.976  -0.543  50.073  1.00  0.00     0.045 A 
ATOM      7  C   UNL     1      35.351  -0.598  49.816  1.00  0.00     0.040 A 
ENDROOT
BRANCH   1   8
ATOM      8  C   UNL     1      37.441  -1.691  49.212  1.00  0.00     0.255 C 
ATOM      9  O   UNL     1      38.021  -1.352  50.215  1.00  0.00    -0.269 OA
ATOM     10  N   UNL     1      37.972  -2.282  48.131  1.00  0.00    -0.322 N 
ATOM     11  H   UNL     1      37.314  -2.642  47.425  1.00  0.00     0.170 HD
BRANCH  10  12
ATOM     12  C   UNL     1      39.327  -2.454  47.877  1.00  0.00     0.044 A 
ATOM     13  C   UNL     1      39.896  -2.028  46.652  1.00  0.00     0.052 A 
ATOM     14  C   UNL     1      40.143  -3.164  48.785  1.00  0.00     0.039 A 
ATOM     15  C   UNL     1      41.260  -2.187  46.391  1.00  0.00     0.049 A 
ATOM     16  C   UNL     1      41.536  -3.305  48.527  1.00  0.00     0.060 A 
ATOM     17  C   UNL     1      42.063  -2.843  47.319  1.00  0.00     0.039 A 
BRANCH  15  18
ATOM     18  N   UNL     1      41.842  -1.731  45.199  1.00  0.00    -0.306 N 
ATOM     19  C   UNL     1      42.152  -0.427  44.819  1.00  0.00     0.116 A 
ATOM     20  C   UNL     1      42.140  -2.466  44.121  1.00  0.00     0.204 A 
ATOM     21  C   UNL     1      42.618  -0.456  43.551  1.00  0.00     0.056 A 
ATOM     22  N   UNL     1      42.633  -1.745  43.144  1.00  0.00    -0.242 NA
ATOM     23  C   UNL     1      43.100   0.702  42.711  1.00  0.00     0.068 C 
ENDBRANCH  15  18
BRANCH  16  24
ATOM     24  C   UNL     1      42.388  -4.009  49.533  1.00  0.00     0.416 C 
ATOM     25  F   UNL     1      43.698  -3.695  49.490  1.00  0.00    -0.166 F 
ATOM     26  F   UNL     1      42.060  -3.651  50.770  1.00  0.00    -0.166 F 
ATOM     27  F   UNL     1      42.381  -5.347  49.365  1.00  0.00    -0.166 F 
ENDBRANCH  16  24
ENDBRANCH  10  12
ENDBRANCH   1   8
BRANCH   6  28
ATOM     28  N   UNL     1      33.352   0.679  50.358  1.00  0.00    -0.324 N 
ATOM     29  H   UNL     1      33.026   1.286  49.594  1.00  0.00     0.170 HD
BRANCH  28  30
ATOM     30  C   UNL     1      33.176   1.066  51.688  1.00  0.00     0.227 A 
ATOM     31  N   UNL     1      33.881   1.933  52.403  1.00  0.00    -0.221 NA
ATOM     32  N   UNL     1      32.161   0.324  52.202  1.00  0.00    -0.213 NA
ATOM     33  C   UNL     1      33.521   2.090  53.691  1.00  0.00     0.117 A 
ATOM     34  C   UNL     1      31.861   0.492  53.495  1.00  0.00     0.077 A 
ATOM     35  C   UNL     1      32.537   1.376  54.260  1.00  0.00     0.049 A 
BRANCH  34  36
ATOM     36  C   UNL     1      30.720  -0.316  54.000  1.00  0.00     0.019 A 
ATOM     37  C   UNL     1      29.595   0.285  54.586  1.00  0.00     0.013 A 
ATOM     38  C   UNL     1      30.748  -1.722  53.917  1.00  0.00     0.121 A 
ATOM     39  C   UNL     1      28.570  -0.522  55.063  1.00  0.00     0.021 A 
ATOM     40  N   UNL     1      29.767  -2.506  54.382  1.00  0.00    -0.264 NA
ATOM     41  C   UNL     1      28.691  -1.903  54.914  1.00  0.00     0.111 A 
ENDBRANCH  34  36
ENDBRANCH  28  30
ENDBRANCH   6  28
TORSDOF 7
ENDMDL
MODEL 18
REMARK VINA RESULT:   -10.828      4.564     13.446
REMARK INTER + INTRA:         -14.214
REMARK INTER:                 -12.916
REMARK INTRA:                  -1.298
REMARK CONF_INDEPENDENT:        2.088
REMARK UNBOUND:                -1.298
REMARK SMILES Cc1cn(-c2cc(NC(=O)c3ccc(C)c(Nc4nccc(-c5cccnc5)n4)c3)cc(C(F)(F)F)c2)cn1
REMARK SMILES IDX 11 1 12 2 13 3 14 4 15 5 16 6 30 7 9 8 10 9 8 10 7 12 6 13
REMARK SMILES IDX 31 14 5 15 32 16 37 17 4 18 3 19 38 20 2 21 39 22 1 23 33 24
REMARK SMILES IDX 34 25 35 26 36 27 17 28 18 30 19 31 29 32 20 33 22 34 21 35
REMARK SMILES IDX 23 36 24 37 28 38 25 39 27 40 26 41
REMARK H PARENT 8 11 17 29
ROOT
ATOM      1  C   UNL     1      21.176   7.136  54.224  1.00  0.00     0.042 A 
ATOM      2  C   UNL     1      20.992   7.294  55.606  1.00  0.00     0.014 A 
ATOM      3  C   UNL     1      20.273   8.371  56.126  1.00  0.00     0.006 A 
ATOM      4  C   UNL     1      19.783   9.372  55.302  1.00  0.00    -0.027 A 
ATOM      5  C   UNL     1      19.007  10.545  55.884  1.00  0.00     0.046 C 
ATOM      6  C   UNL     1      20.052   9.275  53.938  1.00  0.00     0.045 A 
ATOM      7  C   UNL     1      20.754   8.173  53.434  1.00  0.00     0.040 A 
ENDROOT
BRANCH   1   8
ATOM      8  C   UNL     1      22.025   6.103  53.599  1.00  0.00     0.255 C 
ATOM      9  O   UNL     1      21.911   4.992  54.056  1.00  0.00    -0.269 OA
ATOM     10  N   UNL     1      22.627   6.448  52.451  1.00  0.00    -0.322 N 
ATOM     11  H   UNL     1      22.506   7.420  52.133  1.00  0.00     0.170 HD
BRANCH  10  12
ATOM     12  C   UNL     1      23.400   5.614  51.652  1.00  0.00     0.044 A 
ATOM     13  C   UNL     1      24.493   4.895  52.196  1.00  0.00     0.052 A 
ATOM     14  C   UNL     1      23.189   5.558  50.258  1.00  0.00     0.039 A 
ATOM     15  C   UNL     1      25.270   4.046  51.403  1.00  0.00     0.049 A 
ATOM     16  C   UNL     1      23.967   4.676  49.455  1.00  0.00     0.060 A 
ATOM     17  C   UNL     1      25.017   3.962  50.038  1.00  0.00     0.039 A 
BRANCH  15  18
ATOM     18  N   UNL     1      26.329   3.298  51.940  1.00  0.00    -0.306 N 
ATOM     19  C   UNL     1      26.765   3.222  53.262  1.00  0.00     0.116 A 
ATOM     20  C   UNL     1      27.212   2.557  51.261  1.00  0.00     0.204 A 
ATOM     21  C   UNL     1      27.870   2.445  53.298  1.00  0.00     0.056 A 
ATOM     22  N   UNL     1      28.114   2.013  52.041  1.00  0.00    -0.242 NA
ATOM     23  C   UNL     1      28.690   2.052  54.502  1.00  0.00     0.068 C 
ENDBRANCH  15  18
BRANCH  16  24
ATOM     24  C   UNL     1      23.682   4.591  47.991  1.00  0.00     0.416 C 
ATOM     25  F   UNL     1      24.525   5.290  47.205  1.00  0.00    -0.166 F 
ATOM     26  F   UNL     1      23.851   3.353  47.542  1.00  0.00    -0.166 F 
ATOM     27  F   UNL     1      22.470   5.093  47.675  1.00  0.00    -0.166 F 
ENDBRANCH  16  24
ENDBRANCH  10  12
ENDBRANCH   1   8
BRANCH   6  28
ATOM     28  N   UNL     1      19.432  10.183  53.070  1.00  0.00    -0.324 N 
ATOM     29  H   UNL     1      19.994  10.729  52.402  1.00  0.00     0.170 HD
BRANCH  28  30
ATOM     30  C   UNL     1      18.046  10.342  53.118  1.00  0.00     0.227 A 
ATOM     31  N   UNL     1      17.333  11.459  53.049  1.00  0.00    -0.221 NA
ATOM     32  N   UNL     1      17.498   9.119  53.336  1.00  0.00    -0.213 NA
ATOM     33  C   UNL     1      15.997  11.334  53.167  1.00  0.00     0.117 A 
ATOM     34  C   UNL     1      16.170   9.048  53.479  1.00  0.00     0.077 A 
ATOM     35  C   UNL     1      15.399  10.154  53.399  1.00  0.00     0.049 A 
BRANCH  34  36
ATOM     36  C   UNL     1      15.617   7.683  53.680  1.00  0.00     0.019 A 
ATOM     37  C   UNL     1      14.814   7.371  54.789  1.00  0.00     0.013 A 
ATOM     38  C   UNL     1      15.900   6.654  52.761  1.00  0.00     0.121 A 
ATOM     39  C   UNL     1      14.346   6.072  54.939  1.00  0.00     0.021 A 
ATOM     40  N   UNL     1      15.458   5.398  52.905  1.00  0.00    -0.264 NA
ATOM     41  C   UNL     1      14.672   5.134  53.961  1.00  0.00     0.111 A 
ENDBRANCH  34  36
ENDBRANCH  28  30
ENDBRANCH   6  28
TORSDOF 7
ENDMDL
MODEL 19
REMARK VINA RESULT:   -10.817      4.119     11.182
REMARK INTER + INTRA:         -14.165
REMARK INTER:                 -12.905
REMARK INTRA:                  -1.260
REMARK CONF_INDEPENDENT:        2.088
REMARK UNBOUND:                -1.260
REMARK SMILES Cc1cn(-c2cc(NC(=O)c3ccc(C)c(Nc4nccc(-c5cccnc5)n4)c3)cc(C(F)(F)F)c2)cn1
REMARK SMILES IDX 11 1 12 2 13 3 14 4 15 5 16 6 30 7 9 8 10 9 8 10 7 12 6 13
REMARK SMILES IDX 31 14 5 15 32 16 37 17 4 18 3 19 38 20 2 21 39 22 1 23 33 24
REMARK SMILES IDX 34 25 35 26 36 27 17 28 18 30 19 31 29 32 20 33 22 34 21 35
REMARK SMILES IDX 23 36 24 37 28 38 25 39 27 40 26 41
REMARK H PARENT 8 11 17 29
ROOT
ATOM      1  C   UNL     1      25.615   3.744  51.883  1.00  0.00     0.042 A 
ATOM      2  C   UNL     1      24.804   3.772  50.739  1.00  0.00     0.014 A 
ATOM      3  C   UNL     1      23.469   4.175  50.803  1.00  0.00     0.006 A 
ATOM      4  C   UNL     1      22.869   4.482  52.014  1.00  0.00    -0.027 A 
ATOM      5  C   UNL     1      21.410   4.912  52.070  1.00  0.00     0.046 C 
ATOM      6  C   UNL     1      23.641   4.355  53.168  1.00  0.00     0.045 A 
ATOM      7  C   UNL     1      24.986   3.974  53.079  1.00  0.00     0.040 A 
ENDROOT
BRANCH   1   8
ATOM      8  C   UNL     1      26.992   3.213  51.928  1.00  0.00     0.255 C 
ATOM      9  O   UNL     1      27.576   3.197  50.872  1.00  0.00    -0.269 OA
ATOM     10  N   UNL     1      27.523   3.049  53.149  1.00  0.00    -0.322 N 
ATOM     11  H   UNL     1      26.911   3.241  53.955  1.00  0.00     0.170 HD
BRANCH  10  12
ATOM     12  C   UNL     1      28.823   2.645  53.426  1.00  0.00     0.044 A 
ATOM     13  C   UNL     1      29.458   1.651  52.640  1.00  0.00     0.052 A 
ATOM     14  C   UNL     1      29.497   3.127  54.569  1.00  0.00     0.039 A 
ATOM     15  C   UNL     1      30.769   1.245  52.905  1.00  0.00     0.049 A 
ATOM     16  C   UNL     1      30.840   2.728  54.824  1.00  0.00     0.060 A 
ATOM     17  C   UNL     1      31.439   1.768  54.006  1.00  0.00     0.039 A 
BRANCH  15  18
ATOM     18  N   UNL     1      31.421   0.292  52.108  1.00  0.00    -0.306 N 
ATOM     19  C   UNL     1      32.765  -0.077  52.107  1.00  0.00     0.116 A 
ATOM     20  C   UNL     1      30.889  -0.408  51.099  1.00  0.00     0.204 A 
ATOM     21  C   UNL     1      32.957  -0.970  51.112  1.00  0.00     0.056 A 
ATOM     22  N   UNL     1      31.765  -1.188  50.514  1.00  0.00    -0.242 NA
ATOM     23  C   UNL     1      34.238  -1.671  50.727  1.00  0.00     0.068 C 
ENDBRANCH  15  18
BRANCH  16  24
ATOM     24  C   UNL     1      31.550   3.301  56.007  1.00  0.00     0.416 C 
ATOM     25  F   UNL     1      31.650   2.474  57.067  1.00  0.00    -0.166 F 
ATOM     26  F   UNL     1      32.825   3.544  55.727  1.00  0.00    -0.166 F 
ATOM     27  F   UNL     1      30.919   4.381  56.511  1.00  0.00    -0.166 F 
ENDBRANCH  16  24
ENDBRANCH  10  12
ENDBRANCH   1   8
BRANCH   6  28
ATOM     28  N   UNL     1      23.109   4.814  54.379  1.00  0.00    -0.324 N 
ATOM     29  H   UNL     1      22.470   4.218  54.925  1.00  0.00     0.170 HD
BRANCH  28  30
ATOM     30  C   UNL     1      23.451   6.086  54.842  1.00  0.00     0.227 A 
ATOM     31  N   UNL     1      23.277   7.261  54.251  1.00  0.00    -0.221 NA
ATOM     32  N   UNL     1      24.096   5.934  56.027  1.00  0.00    -0.213 NA
ATOM     33  C   UNL     1      23.744   8.342  54.904  1.00  0.00     0.117 A 
ATOM     34  C   UNL     1      24.570   7.034  56.623  1.00  0.00     0.077 A 
ATOM     35  C   UNL     1      24.404   8.254  56.070  1.00  0.00     0.049 A 
BRANCH  34  36
ATOM     36  C   UNL     1      25.238   6.818  57.933  1.00  0.00     0.019 A 
ATOM     37  C   UNL     1      24.502   6.698  59.123  1.00  0.00     0.013 A 
ATOM     38  C   UNL     1      26.642   6.741  58.017  1.00  0.00     0.121 A 
ATOM     39  C   UNL     1      25.181   6.523  60.322  1.00  0.00     0.021 A 
ATOM     40  N   UNL     1      27.302   6.580  59.171  1.00  0.00    -0.264 NA
ATOM     41  C   UNL     1      26.572   6.443  60.290  1.00  0.00     0.111 A 
ENDBRANCH  34  36
ENDBRANCH  28  30
ENDBRANCH   6  28
TORSDOF 7
ENDMDL
MODEL 20
REMARK VINA RESULT:   -10.811      3.863     11.765
REMARK INTER + INTRA:         -14.193
REMARK INTER:                 -12.899
REMARK INTRA:                  -1.294
REMARK CONF_INDEPENDENT:        2.088
REMARK UNBOUND:                -1.294
REMARK SMILES Cc1cn(-c2cc(NC(=O)c3ccc(C)c(Nc4nccc(-c5cccnc5)n4)c3)cc(C(F)(F)F)c2)cn1
REMARK SMILES IDX 11 1 12 2 13 3 14 4 15 5 16 6 30 7 9 8 10 9 8 10 7 12 6 13
REMARK SMILES IDX 31 14 5 15 32 16 37 17 4 18 3 19 38 20 2 21 39 22 1 23 33 24
REMARK SMILES IDX 34 25 35 26 36 27 17 28 18 30 19 31 29 32 20 33 22 34 21 35
REMARK SMILES IDX 23 36 24 37 28 38 25 39 27 40 26 41
REMARK H PARENT 8 11 17 29
ROOT
ATOM      1  C   UNL     1      25.931   3.857  52.003  1.00  0.00     0.042 A 
ATOM      2  C   UNL     1      25.218   4.225  50.853  1.00  0.00     0.014 A 
ATOM      3  C   UNL     1      24.108   5.068  50.924  1.00  0.00     0.006 A 
ATOM      4  C   UNL     1      23.616   5.508  52.143  1.00  0.00    -0.027 A 
ATOM      5  C   UNL     1      22.400   6.420  52.206  1.00  0.00     0.046 C 
ATOM      6  C   UNL     1      24.258   5.061  53.297  1.00  0.00     0.045 A 
ATOM      7  C   UNL     1      25.386   4.236  53.203  1.00  0.00     0.040 A 
ENDROOT
BRANCH   1   8
ATOM      8  C   UNL     1      27.032   2.875  52.035  1.00  0.00     0.255 C 
ATOM      9  O   UNL     1      27.730   2.847  51.051  1.00  0.00    -0.269 OA
ATOM     10  N   UNL     1      27.289   2.312  53.225  1.00  0.00    -0.322 N 
ATOM     11  H   UNL     1      26.661   2.557  54.003  1.00  0.00     0.170 HD
BRANCH  10  12
ATOM     12  C   UNL     1      28.326   1.430  53.504  1.00  0.00     0.044 A 
ATOM     13  C   UNL     1      29.633   1.664  53.010  1.00  0.00     0.052 A 
ATOM     14  C   UNL     1      28.073   0.218  54.183  1.00  0.00     0.039 A 
ATOM     15  C   UNL     1      30.684   0.787  53.294  1.00  0.00     0.049 A 
ATOM     16  C   UNL     1      29.149  -0.663  54.490  1.00  0.00     0.060 A 
ATOM     17  C   UNL     1      30.430  -0.378  54.010  1.00  0.00     0.039 A 
BRANCH  15  18
ATOM     18  N   UNL     1      31.990   1.032  52.845  1.00  0.00    -0.306 N 
ATOM     19  C   UNL     1      32.621   0.571  51.691  1.00  0.00     0.116 A 
ATOM     20  C   UNL     1      32.949   1.701  53.497  1.00  0.00     0.204 A 
ATOM     21  C   UNL     1      33.905   0.989  51.716  1.00  0.00     0.056 A 
ATOM     22  N   UNL     1      34.082   1.722  52.838  1.00  0.00    -0.242 NA
ATOM     23  C   UNL     1      34.978   0.758  50.679  1.00  0.00     0.068 C 
ENDBRANCH  15  18
BRANCH  16  24
ATOM     24  C   UNL     1      28.863  -1.909  55.263  1.00  0.00     0.416 C 
ATOM     25  F   UNL     1      28.009  -2.765  54.668  1.00  0.00    -0.166 F 
ATOM     26  F   UNL     1      29.956  -2.654  55.389  1.00  0.00    -0.166 F 
ATOM     27  F   UNL     1      28.275  -1.654  56.449  1.00  0.00    -0.166 F 
ENDBRANCH  16  24
ENDBRANCH  10  12
ENDBRANCH   1   8
BRANCH   6  28
ATOM     28  N   UNL     1      23.883   5.618  54.526  1.00  0.00    -0.324 N 
ATOM     29  H   UNL     1      23.042   5.280  55.015  1.00  0.00     0.170 HD
BRANCH  28  30
ATOM     30  C   UNL     1      24.659   6.637  55.084  1.00  0.00     0.227 A 
ATOM     31  N   UNL     1      25.813   6.545  55.732  1.00  0.00    -0.221 NA
ATOM     32  N   UNL     1      23.982   7.804  54.924  1.00  0.00    -0.213 NA
ATOM     33  C   UNL     1      26.332   7.691  56.210  1.00  0.00     0.117 A 
ATOM     34  C   UNL     1      24.522   8.912  55.445  1.00  0.00     0.077 A 
ATOM     35  C   UNL     1      25.704   8.872  56.098  1.00  0.00     0.049 A 
BRANCH  34  36
ATOM     36  C   UNL     1      23.761  10.167  55.214  1.00  0.00     0.019 A 
ATOM     37  C   UNL     1      24.060  11.348  55.912  1.00  0.00     0.013 A 
ATOM     38  C   UNL     1      22.699  10.200  54.289  1.00  0.00     0.121 A 
ATOM     39  C   UNL     1      23.299  12.485  55.673  1.00  0.00     0.021 A 
ATOM     40  N   UNL     1      21.957  11.290  54.060  1.00  0.00    -0.264 NA
ATOM     41  C   UNL     1      22.281  12.412  54.723  1.00  0.00     0.111 A 
ENDBRANCH  34  36
ENDBRANCH  28  30
ENDBRANCH   6  28
TORSDOF 7
ENDMDL
