MODEL 1
REMARK VINA RESULT:   -15.147      0.000      0.000
REMARK INTER + INTRA:         -18.419
REMARK INTER:                 -17.235
REMARK INTRA:                  -1.184
REMARK CONF_INDEPENDENT:        2.088
REMARK UNBOUND:                -1.184
REMARK SMILES Cc1cn(-c2cc(NC(=O)c3ccc(C)c(Nc4nccc(-c5cccnc5)n4)c3)cc(C(F)(F)F)c2)cn1
REMARK SMILES IDX 11 1 12 2 13 3 14 4 15 5 16 6 30 7 9 8 10 9 8 10 7 12 6 13
REMARK SMILES IDX 31 14 5 15 32 16 37 17 4 18 3 19 38 20 2 21 39 22 1 23 33 24
REMARK SMILES IDX 34 25 35 26 36 27 17 28 18 30 19 31 29 32 20 33 22 34 21 35
REMARK SMILES IDX 23 36 24 37 28 38 25 39 27 40 26 41
REMARK H PARENT 8 11 17 29
ROOT
ATOM      1  C   UNL     1      27.976   1.864  53.227  1.00  0.00     0.042 A 
ATOM      2  C   UNL     1      27.698   1.352  54.504  1.00  0.00     0.014 A 
ATOM      3  C   UNL     1      28.420   0.280  55.029  1.00  0.00     0.006 A 
ATOM      4  C   UNL     1      29.383  -0.375  54.279  1.00  0.00    -0.027 A 
ATOM      5  C   UNL     1      30.157  -1.548  54.862  1.00  0.00     0.046 C 
ATOM      6  C   UNL     1      29.591   0.063  52.972  1.00  0.00     0.045 A 
ATOM      7  C   UNL     1      28.874   1.157  52.471  1.00  0.00     0.040 A 
ENDROOT
BRANCH   1   8
ATOM      8  C   UNL     1      27.183   2.907  52.546  1.00  0.00     0.255 C 
ATOM      9  O   UNL     1      27.536   3.175  51.424  1.00  0.00    -0.269 OA
ATOM     10  N   UNL     1      26.029   3.252  53.136  1.00  0.00    -0.322 N 
ATOM     11  H   UNL     1      25.820   2.816  54.045  1.00  0.00     0.170 HD
BRANCH  10  12
ATOM     12  C   UNL     1      25.091   4.145  52.633  1.00  0.00     0.044 A 
ATOM     13  C   UNL     1      24.169   4.792  53.493  1.00  0.00     0.052 A 
ATOM     14  C   UNL     1      24.956   4.335  51.240  1.00  0.00     0.039 A 
ATOM     15  C   UNL     1      23.228   5.700  52.997  1.00  0.00     0.049 A 
ATOM     16  C   UNL     1      24.011   5.277  50.740  1.00  0.00     0.060 A 
ATOM     17  C   UNL     1      23.142   5.916  51.626  1.00  0.00     0.039 A 
BRANCH  15  18
ATOM     18  N   UNL     1      22.340   6.377  53.845  1.00  0.00    -0.306 N 
ATOM     19  C   UNL     1      22.025   6.112  55.177  1.00  0.00     0.116 A 
ATOM     20  C   UNL     1      21.525   7.385  53.511  1.00  0.00     0.204 A 
ATOM     21  C   UNL     1      21.055   6.971  55.560  1.00  0.00     0.056 A 
ATOM     22  N   UNL     1      20.779   7.780  54.514  1.00  0.00    -0.242 NA
ATOM     23  C   UNL     1      20.400   7.087  56.915  1.00  0.00     0.068 C 
ENDBRANCH  15  18
BRANCH  16  24
ATOM     24  C   UNL     1      23.931   5.503  49.265  1.00  0.00     0.416 C 
ATOM     25  F   UNL     1      24.581   6.596  48.820  1.00  0.00    -0.166 F 
ATOM     26  F   UNL     1      24.542   4.530  48.599  1.00  0.00    -0.166 F 
ATOM     27  F   UNL     1      22.664   5.699  48.844  1.00  0.00    -0.166 F 
ENDBRANCH  16  24
ENDBRANCH  10  12
ENDBRANCH   1   8
BRANCH   6  28
ATOM     28  N   UNL     1      30.667  -0.474  52.252  1.00  0.00    -0.324 N 
ATOM     29  H   UNL     1      30.525  -1.287  51.636  1.00  0.00     0.170 HD
BRANCH  28  30
ATOM     30  C   UNL     1      31.932   0.102  52.376  1.00  0.00     0.227 A 
ATOM     31  N   UNL     1      32.327   1.078  53.184  1.00  0.00    -0.221 NA
ATOM     32  N   UNL     1      32.736  -0.463  51.439  1.00  0.00    -0.213 NA
ATOM     33  C   UNL     1      33.607   1.480  53.069  1.00  0.00     0.117 A 
ATOM     34  C   UNL     1      33.991  -0.009  51.341  1.00  0.00     0.077 A 
ATOM     35  C   UNL     1      34.445   0.970  52.152  1.00  0.00     0.049 A 
BRANCH  34  36
ATOM     36  C   UNL     1      34.840  -0.683  50.324  1.00  0.00     0.019 A 
ATOM     37  C   UNL     1      36.149  -0.251  50.055  1.00  0.00     0.013 A 
ATOM     38  C   UNL     1      34.342  -1.775  49.587  1.00  0.00     0.121 A 
ATOM     39  C   UNL     1      36.887  -0.904  49.076  1.00  0.00     0.021 A 
ATOM     40  N   UNL     1      35.046  -2.403  48.636  1.00  0.00    -0.264 NA
ATOM     41  C   UNL     1      36.304  -1.985  48.417  1.00  0.00     0.111 A 
ENDBRANCH  34  36
ENDBRANCH  28  30
ENDBRANCH   6  28
TORSDOF 7
ENDMDL
MODEL 2
REMARK VINA RESULT:   -14.103      2.224      3.665
REMARK INTER + INTRA:         -17.412
REMARK INTER:                 -16.191
REMARK INTRA:                  -1.221
REMARK CONF_INDEPENDENT:        2.088
REMARK UNBOUND:                -1.221
REMARK SMILES Cc1cn(-c2cc(NC(=O)c3ccc(C)c(Nc4nccc(-c5cccnc5)n4)c3)cc(C(F)(F)F)c2)cn1
REMARK SMILES IDX 11 1 12 2 13 3 14 4 15 5 16 6 30 7 9 8 10 9 8 10 7 12 6 13
REMARK SMILES IDX 31 14 5 15 32 16 37 17 4 18 3 19 38 20 2 21 39 22 1 23 33 24
REMARK SMILES IDX 34 25 35 26 36 27 17 28 18 30 19 31 29 32 20 33 22 34 21 35
REMARK SMILES IDX 23 36 24 37 28 38 25 39 27 40 26 41
REMARK H PARENT 8 11 17 29
ROOT
ATOM      1  C   UNL     1      28.143   1.610  53.614  1.00  0.00     0.042 A 
ATOM      2  C   UNL     1      27.933   1.017  54.868  1.00  0.00     0.014 A 
ATOM      3  C   UNL     1      28.697  -0.069  55.296  1.00  0.00     0.006 A 
ATOM      4  C   UNL     1      29.637  -0.658  54.466  1.00  0.00    -0.027 A 
ATOM      5  C   UNL     1      30.458  -1.847  54.943  1.00  0.00     0.046 C 
ATOM      6  C   UNL     1      29.779  -0.138  53.180  1.00  0.00     0.045 A 
ATOM      7  C   UNL     1      29.020   0.968  52.779  1.00  0.00     0.040 A 
ENDROOT
BRANCH   1   8
ATOM      8  C   UNL     1      27.302   2.675  53.032  1.00  0.00     0.255 C 
ATOM      9  O   UNL     1      27.737   3.191  52.032  1.00  0.00    -0.269 OA
ATOM     10  N   UNL     1      26.055   2.775  53.518  1.00  0.00    -0.322 N 
ATOM     11  H   UNL     1      25.806   2.152  54.299  1.00  0.00     0.170 HD
BRANCH  10  12
ATOM     12  C   UNL     1      25.071   3.644  53.064  1.00  0.00     0.044 A 
ATOM     13  C   UNL     1      24.918   3.911  51.681  1.00  0.00     0.052 A 
ATOM     14  C   UNL     1      24.279   4.372  53.979  1.00  0.00     0.039 A 
ATOM     15  C   UNL     1      23.924   4.775  51.214  1.00  0.00     0.049 A 
ATOM     16  C   UNL     1      23.252   5.235  53.500  1.00  0.00     0.060 A 
ATOM     17  C   UNL     1      23.116   5.447  52.126  1.00  0.00     0.039 A 
BRANCH  15  18
ATOM     18  N   UNL     1      23.737   5.014  49.844  1.00  0.00    -0.306 N 
ATOM     19  C   UNL     1      23.786   6.222  49.151  1.00  0.00     0.116 A 
ATOM     20  C   UNL     1      23.376   4.120  48.917  1.00  0.00     0.204 A 
ATOM     21  C   UNL     1      23.460   5.983  47.863  1.00  0.00     0.056 A 
ATOM     22  N   UNL     1      23.238   4.657  47.729  1.00  0.00    -0.242 NA
ATOM     23  C   UNL     1      23.392   6.971  46.723  1.00  0.00     0.068 C 
ENDBRANCH  15  18
BRANCH  16  24
ATOM     24  C   UNL     1      22.389   5.947  54.490  1.00  0.00     0.416 C 
ATOM     25  F   UNL     1      23.029   6.852  55.257  1.00  0.00    -0.166 F 
ATOM     26  F   UNL     1      21.481   6.699  53.879  1.00  0.00    -0.166 F 
ATOM     27  F   UNL     1      21.839   5.106  55.391  1.00  0.00    -0.166 F 
ENDBRANCH  16  24
ENDBRANCH  10  12
ENDBRANCH   1   8
BRANCH   6  28
ATOM     28  N   UNL     1      30.830  -0.608  52.383  1.00  0.00    -0.324 N 
ATOM     29  H   UNL     1      30.694  -1.428  51.774  1.00  0.00     0.170 HD
BRANCH  28  30
ATOM     30  C   UNL     1      32.065   0.043  52.421  1.00  0.00     0.227 A 
ATOM     31  N   UNL     1      32.429   1.095  53.143  1.00  0.00    -0.221 NA
ATOM     32  N   UNL     1      32.869  -0.545  51.498  1.00  0.00    -0.213 NA
ATOM     33  C   UNL     1      33.681   1.555  52.954  1.00  0.00     0.117 A 
ATOM     34  C   UNL     1      34.093  -0.033  51.323  1.00  0.00     0.077 A 
ATOM     35  C   UNL     1      34.516   1.026  52.047  1.00  0.00     0.049 A 
BRANCH  34  36
ATOM     36  C   UNL     1      34.946  -0.733  50.328  1.00  0.00     0.019 A 
ATOM     37  C   UNL     1      36.313  -0.440  50.195  1.00  0.00     0.013 A 
ATOM     38  C   UNL     1      34.394  -1.706  49.472  1.00  0.00     0.121 A 
ATOM     39  C   UNL     1      37.055  -1.108  49.230  1.00  0.00     0.021 A 
ATOM     40  N   UNL     1      35.104  -2.348  48.534  1.00  0.00    -0.264 NA
ATOM     41  C   UNL     1      36.414  -2.067  48.447  1.00  0.00     0.111 A 
ENDBRANCH  34  36
ENDBRANCH  28  30
ENDBRANCH   6  28
TORSDOF 7
ENDMDL
MODEL 3
REMARK VINA RESULT:   -12.399      1.601      3.658
REMARK INTER + INTRA:         -16.079
REMARK INTER:                 -14.487
REMARK INTRA:                  -1.592
REMARK CONF_INDEPENDENT:        2.088
REMARK UNBOUND:                -1.592
REMARK SMILES Cc1cn(-c2cc(NC(=O)c3ccc(C)c(Nc4nccc(-c5cccnc5)n4)c3)cc(C(F)(F)F)c2)cn1
REMARK SMILES IDX 11 1 12 2 13 3 14 4 15 5 16 6 30 7 9 8 10 9 8 10 7 12 6 13
REMARK SMILES IDX 31 14 5 15 32 16 37 17 4 18 3 19 38 20 2 21 39 22 1 23 33 24
REMARK SMILES IDX 34 25 35 26 36 27 17 28 18 30 19 31 29 32 20 33 22 34 21 35
REMARK SMILES IDX 23 36 24 37 28 38 25 39 27 40 26 41
REMARK H PARENT 8 11 17 29
ROOT
ATOM      1  C   UNL     1      27.676   1.696  52.930  1.00  0.00     0.042 A 
ATOM      2  C   UNL     1      27.372   1.137  54.180  1.00  0.00     0.014 A 
ATOM      3  C   UNL     1      28.093   0.054  54.686  1.00  0.00     0.006 A 
ATOM      4  C   UNL     1      29.082  -0.563  53.938  1.00  0.00    -0.027 A 
ATOM      5  C   UNL     1      29.855  -1.748  54.500  1.00  0.00     0.046 C 
ATOM      6  C   UNL     1      29.318  -0.078  52.653  1.00  0.00     0.045 A 
ATOM      7  C   UNL     1      28.601   1.026  52.173  1.00  0.00     0.040 A 
ENDROOT
BRANCH   1   8
ATOM      8  C   UNL     1      26.889   2.753  52.265  1.00  0.00     0.255 C 
ATOM      9  O   UNL     1      27.142   2.933  51.099  1.00  0.00    -0.269 OA
ATOM     10  N   UNL     1      25.827   3.214  52.942  1.00  0.00    -0.322 N 
ATOM     11  H   UNL     1      25.683   2.846  53.893  1.00  0.00     0.170 HD
BRANCH  10  12
ATOM     12  C   UNL     1      24.903   4.143  52.478  1.00  0.00     0.044 A 
ATOM     13  C   UNL     1      23.972   4.746  53.360  1.00  0.00     0.052 A 
ATOM     14  C   UNL     1      24.792   4.417  51.098  1.00  0.00     0.039 A 
ATOM     15  C   UNL     1      23.046   5.688  52.905  1.00  0.00     0.049 A 
ATOM     16  C   UNL     1      23.863   5.394  50.639  1.00  0.00     0.060 A 
ATOM     17  C   UNL     1      22.984   5.987  51.547  1.00  0.00     0.039 A 
BRANCH  15  18
ATOM     18  N   UNL     1      22.148   6.322  53.777  1.00  0.00    -0.306 N 
ATOM     19  C   UNL     1      21.325   7.421  53.539  1.00  0.00     0.116 A 
ATOM     20  C   UNL     1      21.964   6.049  55.074  1.00  0.00     0.204 A 
ATOM     21  C   UNL     1      20.698   7.736  54.694  1.00  0.00     0.056 A 
ATOM     22  N   UNL     1      21.086   6.845  55.633  1.00  0.00    -0.242 NA
ATOM     23  C   UNL     1      19.693   8.836  54.935  1.00  0.00     0.068 C 
ENDBRANCH  15  18
BRANCH  16  24
ATOM     24  C   UNL     1      23.809   5.708  49.179  1.00  0.00     0.416 C 
ATOM     25  F   UNL     1      24.718   6.608  48.755  1.00  0.00    -0.166 F 
ATOM     26  F   UNL     1      24.117   4.641  48.450  1.00  0.00    -0.166 F 
ATOM     27  F   UNL     1      22.631   6.258  48.816  1.00  0.00    -0.166 F 
ENDBRANCH  16  24
ENDBRANCH  10  12
ENDBRANCH   1   8
BRANCH   6  28
ATOM     28  N   UNL     1      30.418  -0.577  51.943  1.00  0.00    -0.324 N 
ATOM     29  H   UNL     1      30.316  -1.413  51.349  1.00  0.00     0.170 HD
BRANCH  28  30
ATOM     30  C   UNL     1      31.652   0.066  52.047  1.00  0.00     0.227 A 
ATOM     31  N   UNL     1      32.753  -0.125  51.331  1.00  0.00    -0.221 NA
ATOM     32  N   UNL     1      31.586   0.917  53.103  1.00  0.00    -0.213 NA
ATOM     33  C   UNL     1      33.831   0.607  51.671  1.00  0.00     0.117 A 
ATOM     34  C   UNL     1      32.692   1.599  53.422  1.00  0.00     0.077 A 
ATOM     35  C   UNL     1      33.831   1.453  52.714  1.00  0.00     0.049 A 
BRANCH  34  36
ATOM     36  C   UNL     1      32.557   2.543  54.563  1.00  0.00     0.019 A 
ATOM     37  C   UNL     1      31.474   2.471  55.453  1.00  0.00     0.013 A 
ATOM     38  C   UNL     1      33.516   3.554  54.772  1.00  0.00     0.121 A 
ATOM     39  C   UNL     1      31.386   3.396  56.486  1.00  0.00     0.021 A 
ATOM     40  N   UNL     1      33.433   4.453  55.761  1.00  0.00    -0.264 NA
ATOM     41  C   UNL     1      32.400   4.345  56.613  1.00  0.00     0.111 A 
ENDBRANCH  34  36
ENDBRANCH  28  30
ENDBRANCH   6  28
TORSDOF 7
ENDMDL
MODEL 4
REMARK VINA RESULT:   -12.239      1.605      2.260
REMARK INTER + INTRA:         -15.804
REMARK INTER:                 -14.327
REMARK INTRA:                  -1.477
REMARK CONF_INDEPENDENT:        2.088
REMARK UNBOUND:                -1.477
REMARK SMILES Cc1cn(-c2cc(NC(=O)c3ccc(C)c(Nc4nccc(-c5cccnc5)n4)c3)cc(C(F)(F)F)c2)cn1
REMARK SMILES IDX 11 1 12 2 13 3 14 4 15 5 16 6 30 7 9 8 10 9 8 10 7 12 6 13
REMARK SMILES IDX 31 14 5 15 32 16 37 17 4 18 3 19 38 20 2 21 39 22 1 23 33 24
REMARK SMILES IDX 34 25 35 26 36 27 17 28 18 30 19 31 29 32 20 33 22 34 21 35
REMARK SMILES IDX 23 36 24 37 28 38 25 39 27 40 26 41
REMARK H PARENT 8 11 17 29
ROOT
ATOM      1  C   UNL     1      28.055   1.999  52.906  1.00  0.00     0.042 A 
ATOM      2  C   UNL     1      27.655   0.735  53.365  1.00  0.00     0.014 A 
ATOM      3  C   UNL     1      28.503  -0.059  54.138  1.00  0.00     0.006 A 
ATOM      4  C   UNL     1      29.804   0.333  54.412  1.00  0.00    -0.027 A 
ATOM      5  C   UNL     1      30.720  -0.547  55.250  1.00  0.00     0.046 C 
ATOM      6  C   UNL     1      30.241   1.542  53.871  1.00  0.00     0.045 A 
ATOM      7  C   UNL     1      29.366   2.336  53.119  1.00  0.00     0.040 A 
ENDROOT
BRANCH   1   8
ATOM      8  C   UNL     1      27.275   2.846  51.983  1.00  0.00     0.255 C 
ATOM      9  O   UNL     1      27.652   2.847  50.836  1.00  0.00    -0.269 OA
ATOM     10  N   UNL     1      26.107   3.311  52.450  1.00  0.00    -0.322 N 
ATOM     11  H   UNL     1      25.878   3.099  53.432  1.00  0.00     0.170 HD
BRANCH  10  12
ATOM     12  C   UNL     1      25.178   4.054  51.732  1.00  0.00     0.044 A 
ATOM     13  C   UNL     1      24.419   5.073  52.361  1.00  0.00     0.052 A 
ATOM     14  C   UNL     1      24.882   3.729  50.390  1.00  0.00     0.039 A 
ATOM     15  C   UNL     1      23.489   5.831  51.644  1.00  0.00     0.049 A 
ATOM     16  C   UNL     1      23.950   4.518  49.657  1.00  0.00     0.060 A 
ATOM     17  C   UNL     1      23.246   5.533  50.307  1.00  0.00     0.039 A 
BRANCH  15  18
ATOM     18  N   UNL     1      22.764   6.870  52.247  1.00  0.00    -0.306 N 
ATOM     19  C   UNL     1      22.871   8.245  52.046  1.00  0.00     0.116 A 
ATOM     20  C   UNL     1      21.861   6.753  53.228  1.00  0.00     0.204 A 
ATOM     21  C   UNL     1      22.033   8.864  52.905  1.00  0.00     0.056 A 
ATOM     22  N   UNL     1      21.387   7.912  53.614  1.00  0.00    -0.242 NA
ATOM     23  C   UNL     1      21.782  10.346  53.053  1.00  0.00     0.068 C 
ENDBRANCH  15  18
BRANCH  16  24
ATOM     24  C   UNL     1      23.701   4.190  48.220  1.00  0.00     0.416 C 
ATOM     25  F   UNL     1      24.521   4.805  47.345  1.00  0.00    -0.166 F 
ATOM     26  F   UNL     1      23.947   2.908  47.974  1.00  0.00    -0.166 F 
ATOM     27  F   UNL     1      22.471   4.566  47.814  1.00  0.00    -0.166 F 
ENDBRANCH  16  24
ENDBRANCH  10  12
ENDBRANCH   1   8
BRANCH   6  28
ATOM     28  N   UNL     1      31.491   2.035  54.267  1.00  0.00    -0.324 N 
ATOM     29  H   UNL     1      31.552   2.831  54.917  1.00  0.00     0.170 HD
BRANCH  28  30
ATOM     30  C   UNL     1      32.653   1.440  53.772  1.00  0.00     0.227 A 
ATOM     31  N   UNL     1      33.901   1.566  54.203  1.00  0.00    -0.221 NA
ATOM     32  N   UNL     1      32.312   0.726  52.668  1.00  0.00    -0.213 NA
ATOM     33  C   UNL     1      34.851   0.909  53.510  1.00  0.00     0.117 A 
ATOM     34  C   UNL     1      33.294   0.116  51.994  1.00  0.00     0.077 A 
ATOM     35  C   UNL     1      34.578   0.200  52.403  1.00  0.00     0.049 A 
BRANCH  34  36
ATOM     36  C   UNL     1      32.864  -0.681  50.815  1.00  0.00     0.019 A 
ATOM     37  C   UNL     1      31.507  -0.878  50.515  1.00  0.00     0.013 A 
ATOM     38  C   UNL     1      33.820  -1.277  49.969  1.00  0.00     0.121 A 
ATOM     39  C   UNL     1      31.165  -1.653  49.415  1.00  0.00     0.021 A 
ATOM     40  N   UNL     1      33.496  -2.032  48.911  1.00  0.00    -0.264 NA
ATOM     41  C   UNL     1      32.191  -2.183  48.633  1.00  0.00     0.111 A 
ENDBRANCH  34  36
ENDBRANCH  28  30
ENDBRANCH   6  28
TORSDOF 7
ENDMDL
MODEL 5
REMARK VINA RESULT:   -11.857      3.119      4.219
REMARK INTER + INTRA:         -14.948
REMARK INTER:                 -13.945
REMARK INTRA:                  -1.003
REMARK CONF_INDEPENDENT:        2.088
REMARK UNBOUND:                -1.003
REMARK SMILES Cc1cn(-c2cc(NC(=O)c3ccc(C)c(Nc4nccc(-c5cccnc5)n4)c3)cc(C(F)(F)F)c2)cn1
REMARK SMILES IDX 11 1 12 2 13 3 14 4 15 5 16 6 30 7 9 8 10 9 8 10 7 12 6 13
REMARK SMILES IDX 31 14 5 15 32 16 37 17 4 18 3 19 38 20 2 21 39 22 1 23 33 24
REMARK SMILES IDX 34 25 35 26 36 27 17 28 18 30 19 31 29 32 20 33 22 34 21 35
REMARK SMILES IDX 23 36 24 37 28 38 25 39 27 40 26 41
REMARK H PARENT 8 11 17 29
ROOT
ATOM      1  C   UNL     1      28.213   2.593  52.609  1.00  0.00     0.042 A 
ATOM      2  C   UNL     1      28.121   3.183  53.878  1.00  0.00     0.014 A 
ATOM      3  C   UNL     1      29.173   3.108  54.792  1.00  0.00     0.006 A 
ATOM      4  C   UNL     1      30.317   2.377  54.513  1.00  0.00    -0.027 A 
ATOM      5  C   UNL     1      31.453   2.298  55.523  1.00  0.00     0.046 C 
ATOM      6  C   UNL     1      30.371   1.703  53.294  1.00  0.00     0.045 A 
ATOM      7  C   UNL     1      29.315   1.811  52.380  1.00  0.00     0.040 A 
ENDROOT
BRANCH   1   8
ATOM      8  C   UNL     1      27.108   2.515  51.633  1.00  0.00     0.255 C 
ATOM      9  O   UNL     1      26.807   1.401  51.279  1.00  0.00    -0.269 OA
ATOM     10  N   UNL     1      26.404   3.642  51.444  1.00  0.00    -0.322 N 
ATOM     11  H   UNL     1      26.729   4.484  51.940  1.00  0.00     0.170 HD
BRANCH  10  12
ATOM     12  C   UNL     1      25.279   3.776  50.641  1.00  0.00     0.044 A 
ATOM     13  C   UNL     1      24.539   2.639  50.230  1.00  0.00     0.052 A 
ATOM     14  C   UNL     1      24.917   5.036  50.118  1.00  0.00     0.039 A 
ATOM     15  C   UNL     1      23.400   2.765  49.431  1.00  0.00     0.049 A 
ATOM     16  C   UNL     1      23.743   5.165  49.322  1.00  0.00     0.060 A 
ATOM     17  C   UNL     1      23.025   4.021  48.965  1.00  0.00     0.039 A 
BRANCH  15  18
ATOM     18  N   UNL     1      22.636   1.650  49.054  1.00  0.00    -0.306 N 
ATOM     19  C   UNL     1      22.270   0.541  49.814  1.00  0.00     0.116 A 
ATOM     20  C   UNL     1      22.170   1.375  47.830  1.00  0.00     0.204 A 
ATOM     21  C   UNL     1      21.609  -0.322  49.012  1.00  0.00     0.056 A 
ATOM     22  N   UNL     1      21.529   0.233  47.782  1.00  0.00    -0.242 NA
ATOM     23  C   UNL     1      21.000  -1.653  49.381  1.00  0.00     0.068 C 
ENDBRANCH  15  18
BRANCH  16  24
ATOM     24  C   UNL     1      23.349   6.520  48.831  1.00  0.00     0.416 C 
ATOM     25  F   UNL     1      23.811   6.838  47.605  1.00  0.00    -0.166 F 
ATOM     26  F   UNL     1      22.035   6.602  48.659  1.00  0.00    -0.166 F 
ATOM     27  F   UNL     1      23.830   7.509  49.613  1.00  0.00    -0.166 F 
ENDBRANCH  16  24
ENDBRANCH  10  12
ENDBRANCH   1   8
BRANCH   6  28
ATOM     28  N   UNL     1      31.577   1.095  52.922  1.00  0.00    -0.324 N 
ATOM     29  H   UNL     1      32.439   1.283  53.453  1.00  0.00     0.170 HD
BRANCH  28  30
ATOM     30  C   UNL     1      31.600   0.231  51.825  1.00  0.00     0.227 A 
ATOM     31  N   UNL     1      30.588  -0.386  51.230  1.00  0.00    -0.221 NA
ATOM     32  N   UNL     1      32.900   0.041  51.479  1.00  0.00    -0.213 NA
ATOM     33  C   UNL     1      30.896  -1.208  50.208  1.00  0.00     0.117 A 
ATOM     34  C   UNL     1      33.158  -0.810  50.479  1.00  0.00     0.077 A 
ATOM     35  C   UNL     1      32.161  -1.449  49.830  1.00  0.00     0.049 A 
BRANCH  34  36
ATOM     36  C   UNL     1      34.592  -0.957  50.115  1.00  0.00     0.019 A 
ATOM     37  C   UNL     1      35.537   0.030  50.437  1.00  0.00     0.013 A 
ATOM     38  C   UNL     1      35.040  -2.096  49.417  1.00  0.00     0.121 A 
ATOM     39  C   UNL     1      36.859  -0.150  50.050  1.00  0.00     0.021 A 
ATOM     40  N   UNL     1      36.311  -2.271  49.035  1.00  0.00    -0.264 NA
ATOM     41  C   UNL     1      37.199  -1.324  49.378  1.00  0.00     0.111 A 
ENDBRANCH  34  36
ENDBRANCH  28  30
ENDBRANCH   6  28
TORSDOF 7
ENDMDL
MODEL 6
REMARK VINA RESULT:   -11.705      2.938      4.442
REMARK INTER + INTRA:         -14.669
REMARK INTER:                 -13.793
REMARK INTRA:                  -0.876
REMARK CONF_INDEPENDENT:        2.088
REMARK UNBOUND:                -0.876
REMARK SMILES Cc1cn(-c2cc(NC(=O)c3ccc(C)c(Nc4nccc(-c5cccnc5)n4)c3)cc(C(F)(F)F)c2)cn1
REMARK SMILES IDX 11 1 12 2 13 3 14 4 15 5 16 6 30 7 9 8 10 9 8 10 7 12 6 13
REMARK SMILES IDX 31 14 5 15 32 16 37 17 4 18 3 19 38 20 2 21 39 22 1 23 33 24
REMARK SMILES IDX 34 25 35 26 36 27 17 28 18 30 19 31 29 32 20 33 22 34 21 35
REMARK SMILES IDX 23 36 24 37 28 38 25 39 27 40 26 41
REMARK H PARENT 8 11 17 29
ROOT
ATOM      1  C   UNL     1      28.635   2.803  53.910  1.00  0.00     0.042 A 
ATOM      2  C   UNL     1      28.992   3.625  54.990  1.00  0.00     0.014 A 
ATOM      3  C   UNL     1      30.311   3.704  55.438  1.00  0.00     0.006 A 
ATOM      4  C   UNL     1      31.305   2.910  54.888  1.00  0.00    -0.027 A 
ATOM      5  C   UNL     1      32.739   3.001  55.392  1.00  0.00     0.046 C 
ATOM      6  C   UNL     1      30.937   2.015  53.885  1.00  0.00     0.045 A 
ATOM      7  C   UNL     1      29.612   1.969  53.432  1.00  0.00     0.040 A 
ENDROOT
BRANCH   1   8
ATOM      8  C   UNL     1      27.251   2.563  53.455  1.00  0.00     0.255 C 
ATOM      9  O   UNL     1      26.764   1.516  53.805  1.00  0.00    -0.269 OA
ATOM     10  N   UNL     1      26.610   3.618  52.930  1.00  0.00    -0.322 N 
ATOM     11  H   UNL     1      27.150   4.488  52.825  1.00  0.00     0.170 HD
BRANCH  10  12
ATOM     12  C   UNL     1      25.284   3.643  52.515  1.00  0.00     0.044 A 
ATOM     13  C   UNL     1      24.897   3.061  51.283  1.00  0.00     0.052 A 
ATOM     14  C   UNL     1      24.314   4.355  53.254  1.00  0.00     0.039 A 
ATOM     15  C   UNL     1      23.564   3.073  50.862  1.00  0.00     0.049 A 
ATOM     16  C   UNL     1      22.953   4.347  52.834  1.00  0.00     0.060 A 
ATOM     17  C   UNL     1      22.609   3.734  51.627  1.00  0.00     0.039 A 
BRANCH  15  18
ATOM     18  N   UNL     1      23.163   2.462  49.664  1.00  0.00    -0.306 N 
ATOM     19  C   UNL     1      22.330   1.360  49.479  1.00  0.00     0.116 A 
ATOM     20  C   UNL     1      23.583   2.766  48.430  1.00  0.00     0.204 A 
ATOM     21  C   UNL     1      22.296   1.074  48.159  1.00  0.00     0.056 A 
ATOM     22  N   UNL     1      23.060   1.985  47.516  1.00  0.00    -0.242 NA
ATOM     23  C   UNL     1      21.519  -0.019  47.465  1.00  0.00     0.068 C 
ENDBRANCH  15  18
BRANCH  16  24
ATOM     24  C   UNL     1      21.937   5.059  53.668  1.00  0.00     0.416 C 
ATOM     25  F   UNL     1      22.446   5.857  54.628  1.00  0.00    -0.166 F 
ATOM     26  F   UNL     1      21.238   5.919  52.937  1.00  0.00    -0.166 F 
ATOM     27  F   UNL     1      21.149   4.206  54.354  1.00  0.00    -0.166 F 
ENDBRANCH  16  24
ENDBRANCH  10  12
ENDBRANCH   1   8
BRANCH   6  28
ATOM     28  N   UNL     1      31.947   1.323  53.205  1.00  0.00    -0.324 N 
ATOM     29  H   UNL     1      32.926   1.396  53.515  1.00  0.00     0.170 HD
BRANCH  28  30
ATOM     30  C   UNL     1      31.616   0.533  52.102  1.00  0.00     0.227 A 
ATOM     31  N   UNL     1      30.416   0.157  51.678  1.00  0.00    -0.221 NA
ATOM     32  N   UNL     1      32.775   0.116  51.531  1.00  0.00    -0.213 NA
ATOM     33  C   UNL     1      30.380  -0.651  50.601  1.00  0.00     0.117 A 
ATOM     34  C   UNL     1      32.690  -0.711  50.483  1.00  0.00     0.077 A 
ATOM     35  C   UNL     1      31.492  -1.109  50.003  1.00  0.00     0.049 A 
BRANCH  34  36
ATOM     36  C   UNL     1      33.985  -1.111  49.873  1.00  0.00     0.019 A 
ATOM     37  C   UNL     1      35.066  -0.219  49.791  1.00  0.00     0.013 A 
ATOM     38  C   UNL     1      34.156  -2.405  49.342  1.00  0.00     0.121 A 
ATOM     39  C   UNL     1      36.244  -0.640  49.188  1.00  0.00     0.021 A 
ATOM     40  N   UNL     1      35.287  -2.813  48.752  1.00  0.00    -0.264 NA
ATOM     41  C   UNL     1      36.313  -1.948  48.710  1.00  0.00     0.111 A 
ENDBRANCH  34  36
ENDBRANCH  28  30
ENDBRANCH   6  28
TORSDOF 7
ENDMDL
MODEL 7
REMARK VINA RESULT:   -11.510      3.766     11.786
REMARK INTER + INTRA:         -14.759
REMARK INTER:                 -13.598
REMARK INTRA:                  -1.162
REMARK CONF_INDEPENDENT:        2.088
REMARK UNBOUND:                -1.162
REMARK SMILES Cc1cn(-c2cc(NC(=O)c3ccc(C)c(Nc4nccc(-c5cccnc5)n4)c3)cc(C(F)(F)F)c2)cn1
REMARK SMILES IDX 11 1 12 2 13 3 14 4 15 5 16 6 30 7 9 8 10 9 8 10 7 12 6 13
REMARK SMILES IDX 31 14 5 15 32 16 37 17 4 18 3 19 38 20 2 21 39 22 1 23 33 24
REMARK SMILES IDX 34 25 35 26 36 27 17 28 18 30 19 31 29 32 20 33 22 34 21 35
REMARK SMILES IDX 23 36 24 37 28 38 25 39 27 40 26 41
REMARK H PARENT 8 11 17 29
ROOT
ATOM      1  C   UNL     1      25.907   3.859  51.982  1.00  0.00     0.042 A 
ATOM      2  C   UNL     1      25.271   4.312  50.816  1.00  0.00     0.014 A 
ATOM      3  C   UNL     1      24.157   5.149  50.874  1.00  0.00     0.006 A 
ATOM      4  C   UNL     1      23.583   5.499  52.086  1.00  0.00    -0.027 A 
ATOM      5  C   UNL     1      22.362   6.407  52.134  1.00  0.00     0.046 C 
ATOM      6  C   UNL     1      24.148   4.968  53.245  1.00  0.00     0.045 A 
ATOM      7  C   UNL     1      25.282   4.150  53.166  1.00  0.00     0.040 A 
ENDROOT
BRANCH   1   8
ATOM      8  C   UNL     1      27.007   2.875  52.015  1.00  0.00     0.255 C 
ATOM      9  O   UNL     1      27.695   2.833  51.024  1.00  0.00    -0.269 OA
ATOM     10  N   UNL     1      27.274   2.327  53.210  1.00  0.00    -0.322 N 
ATOM     11  H   UNL     1      26.654   2.583  53.991  1.00  0.00     0.170 HD
BRANCH  10  12
ATOM     12  C   UNL     1      28.312   1.446  53.490  1.00  0.00     0.044 A 
ATOM     13  C   UNL     1      29.620   1.685  53.001  1.00  0.00     0.052 A 
ATOM     14  C   UNL     1      28.060   0.232  54.165  1.00  0.00     0.039 A 
ATOM     15  C   UNL     1      30.672   0.810  53.285  1.00  0.00     0.049 A 
ATOM     16  C   UNL     1      29.137  -0.647  54.473  1.00  0.00     0.060 A 
ATOM     17  C   UNL     1      30.418  -0.358  53.997  1.00  0.00     0.039 A 
BRANCH  15  18
ATOM     18  N   UNL     1      31.979   1.058  52.842  1.00  0.00    -0.306 N 
ATOM     19  C   UNL     1      32.618   0.592  51.694  1.00  0.00     0.116 A 
ATOM     20  C   UNL     1      32.931   1.737  53.493  1.00  0.00     0.204 A 
ATOM     21  C   UNL     1      33.900   1.018  51.722  1.00  0.00     0.056 A 
ATOM     22  N   UNL     1      34.067   1.760  52.839  1.00  0.00    -0.242 NA
ATOM     23  C   UNL     1      34.979   0.785  50.693  1.00  0.00     0.068 C 
ENDBRANCH  15  18
BRANCH  16  24
ATOM     24  C   UNL     1      28.851  -1.896  55.242  1.00  0.00     0.416 C 
ATOM     25  F   UNL     1      28.011  -2.758  54.636  1.00  0.00    -0.166 F 
ATOM     26  F   UNL     1      29.948  -2.632  55.381  1.00  0.00    -0.166 F 
ATOM     27  F   UNL     1      28.246  -1.645  56.421  1.00  0.00    -0.166 F 
ENDBRANCH  16  24
ENDBRANCH  10  12
ENDBRANCH   1   8
BRANCH   6  28
ATOM     28  N   UNL     1      23.689   5.435  54.483  1.00  0.00    -0.324 N 
ATOM     29  H   UNL     1      22.740   5.201  54.807  1.00  0.00     0.170 HD
BRANCH  28  30
ATOM     30  C   UNL     1      24.530   6.218  55.276  1.00  0.00     0.227 A 
ATOM     31  N   UNL     1      25.825   6.465  55.125  1.00  0.00    -0.221 NA
ATOM     32  N   UNL     1      23.804   6.659  56.336  1.00  0.00    -0.213 NA
ATOM     33  C   UNL     1      26.411   7.227  56.068  1.00  0.00     0.117 A 
ATOM     34  C   UNL     1      24.437   7.387  57.263  1.00  0.00     0.077 A 
ATOM     35  C   UNL     1      25.750   7.680  57.145  1.00  0.00     0.049 A 
BRANCH  34  36
ATOM     36  C   UNL     1      23.592   7.875  58.384  1.00  0.00     0.019 A 
ATOM     37  C   UNL     1      24.047   8.861  59.274  1.00  0.00     0.013 A 
ATOM     38  C   UNL     1      22.304   7.343  58.593  1.00  0.00     0.121 A 
ATOM     39  C   UNL     1      23.222   9.260  60.318  1.00  0.00     0.021 A 
ATOM     40  N   UNL     1      21.508   7.718  59.602  1.00  0.00    -0.264 NA
ATOM     41  C   UNL     1      21.958   8.681  60.423  1.00  0.00     0.111 A 
ENDBRANCH  34  36
ENDBRANCH  28  30
ENDBRANCH   6  28
TORSDOF 7
ENDMDL
MODEL 8
REMARK VINA RESULT:   -11.433      4.120     11.155
REMARK INTER + INTRA:         -14.711
REMARK INTER:                 -13.521
REMARK INTRA:                  -1.190
REMARK CONF_INDEPENDENT:        2.088
REMARK UNBOUND:                -1.190
REMARK SMILES Cc1cn(-c2cc(NC(=O)c3ccc(C)c(Nc4nccc(-c5cccnc5)n4)c3)cc(C(F)(F)F)c2)cn1
REMARK SMILES IDX 11 1 12 2 13 3 14 4 15 5 16 6 30 7 9 8 10 9 8 10 7 12 6 13
REMARK SMILES IDX 31 14 5 15 32 16 37 17 4 18 3 19 38 20 2 21 39 22 1 23 33 24
REMARK SMILES IDX 34 25 35 26 36 27 17 28 18 30 19 31 29 32 20 33 22 34 21 35
REMARK SMILES IDX 23 36 24 37 28 38 25 39 27 40 26 41
REMARK H PARENT 8 11 17 29
ROOT
ATOM      1  C   UNL     1      25.811   3.949  52.006  1.00  0.00     0.042 A 
ATOM      2  C   UNL     1      25.225   4.471  50.843  1.00  0.00     0.014 A 
ATOM      3  C   UNL     1      24.122   5.324  50.904  1.00  0.00     0.006 A 
ATOM      4  C   UNL     1      23.510   5.622  52.111  1.00  0.00    -0.027 A 
ATOM      5  C   UNL     1      22.303   6.547  52.163  1.00  0.00     0.046 C 
ATOM      6  C   UNL     1      24.024   5.023  53.261  1.00  0.00     0.045 A 
ATOM      7  C   UNL     1      25.148   4.190  53.181  1.00  0.00     0.040 A 
ENDROOT
BRANCH   1   8
ATOM      8  C   UNL     1      26.893   2.946  52.027  1.00  0.00     0.255 C 
ATOM      9  O   UNL     1      27.566   2.887  51.027  1.00  0.00    -0.269 OA
ATOM     10  N   UNL     1      27.169   2.399  53.221  1.00  0.00    -0.322 N 
ATOM     11  H   UNL     1      26.565   2.669  54.010  1.00  0.00     0.170 HD
BRANCH  10  12
ATOM     12  C   UNL     1      28.194   1.501  53.489  1.00  0.00     0.044 A 
ATOM     13  C   UNL     1      29.502   1.718  52.987  1.00  0.00     0.052 A 
ATOM     14  C   UNL     1      27.930   0.290  54.166  1.00  0.00     0.039 A 
ATOM     15  C   UNL     1      30.542   0.826  53.261  1.00  0.00     0.049 A 
ATOM     16  C   UNL     1      28.995  -0.607  54.463  1.00  0.00     0.060 A 
ATOM     17  C   UNL     1      30.276  -0.338  53.974  1.00  0.00     0.039 A 
BRANCH  15  18
ATOM     18  N   UNL     1      31.849   1.054  52.804  1.00  0.00    -0.306 N 
ATOM     19  C   UNL     1      32.468   0.578  51.650  1.00  0.00     0.116 A 
ATOM     20  C   UNL     1      32.818   1.716  53.446  1.00  0.00     0.204 A 
ATOM     21  C   UNL     1      33.757   0.983  51.665  1.00  0.00     0.056 A 
ATOM     22  N   UNL     1      33.947   1.721  52.781  1.00  0.00    -0.242 NA
ATOM     23  C   UNL     1      34.822   0.733  50.625  1.00  0.00     0.068 C 
ENDBRANCH  15  18
BRANCH  16  24
ATOM     24  C   UNL     1      28.697  -1.852  55.233  1.00  0.00     0.416 C 
ATOM     25  F   UNL     1      28.275  -1.652  56.497  1.00  0.00    -0.166 F 
ATOM     26  F   UNL     1      27.672  -2.508  54.702  1.00  0.00    -0.166 F 
ATOM     27  F   UNL     1      29.786  -2.634  55.386  1.00  0.00    -0.166 F 
ENDBRANCH  16  24
ENDBRANCH  10  12
ENDBRANCH   1   8
BRANCH   6  28
ATOM     28  N   UNL     1      23.529   5.434  54.505  1.00  0.00    -0.324 N 
ATOM     29  H   UNL     1      22.786   4.894  54.972  1.00  0.00     0.170 HD
BRANCH  28  30
ATOM     30  C   UNL     1      24.050   6.581  55.107  1.00  0.00     0.227 A 
ATOM     31  N   UNL     1      24.148   7.809  54.613  1.00  0.00    -0.221 NA
ATOM     32  N   UNL     1      24.543   6.222  56.320  1.00  0.00    -0.213 NA
ATOM     33  C   UNL     1      24.738   8.731  55.397  1.00  0.00     0.117 A 
ATOM     34  C   UNL     1      25.150   7.166  57.049  1.00  0.00     0.077 A 
ATOM     35  C   UNL     1      25.258   8.434  56.598  1.00  0.00     0.049 A 
BRANCH  34  36
ATOM     36  C   UNL     1      25.641   6.731  58.382  1.00  0.00     0.019 A 
ATOM     37  C   UNL     1      24.757   6.456  59.438  1.00  0.00     0.013 A 
ATOM     38  C   UNL     1      27.022   6.597  58.627  1.00  0.00     0.121 A 
ATOM     39  C   UNL     1      25.274   6.077  60.670  1.00  0.00     0.021 A 
ATOM     40  N   UNL     1      27.527   6.240  59.815  1.00  0.00    -0.264 NA
ATOM     41  C   UNL     1      26.658   5.958  60.799  1.00  0.00     0.111 A 
ENDBRANCH  34  36
ENDBRANCH  28  30
ENDBRANCH   6  28
TORSDOF 7
ENDMDL
MODEL 9
REMARK VINA RESULT:   -11.156      3.658     12.062
REMARK INTER + INTRA:         -14.461
REMARK INTER:                 -13.244
REMARK INTRA:                  -1.217
REMARK CONF_INDEPENDENT:        2.088
REMARK UNBOUND:                -1.217
REMARK SMILES Cc1cn(-c2cc(NC(=O)c3ccc(C)c(Nc4nccc(-c5cccnc5)n4)c3)cc(C(F)(F)F)c2)cn1
REMARK SMILES IDX 11 1 12 2 13 3 14 4 15 5 16 6 30 7 9 8 10 9 8 10 7 12 6 13
REMARK SMILES IDX 31 14 5 15 32 16 37 17 4 18 3 19 38 20 2 21 39 22 1 23 33 24
REMARK SMILES IDX 34 25 35 26 36 27 17 28 18 30 19 31 29 32 20 33 22 34 21 35
REMARK SMILES IDX 23 36 24 37 28 38 25 39 27 40 26 41
REMARK H PARENT 8 11 17 29
ROOT
ATOM      1  C   UNL     1      26.129   3.498  51.700  1.00  0.00     0.042 A 
ATOM      2  C   UNL     1      25.452   3.764  50.501  1.00  0.00     0.014 A 
ATOM      3  C   UNL     1      24.195   4.371  50.494  1.00  0.00     0.006 A 
ATOM      4  C   UNL     1      23.529   4.657  51.676  1.00  0.00    -0.027 A 
ATOM      5  C   UNL     1      22.155   5.312  51.654  1.00  0.00     0.046 C 
ATOM      6  C   UNL     1      24.152   4.300  52.871  1.00  0.00     0.045 A 
ATOM      7  C   UNL     1      25.424   3.715  52.856  1.00  0.00     0.040 A 
ENDROOT
BRANCH   1   8
ATOM      8  C   UNL     1      27.396   2.749  51.805  1.00  0.00     0.255 C 
ATOM      9  O   UNL     1      28.328   3.220  51.200  1.00  0.00    -0.269 OA
ATOM     10  N   UNL     1      27.442   1.792  52.744  1.00  0.00    -0.322 N 
ATOM     11  H   UNL     1      26.575   1.610  53.268  1.00  0.00     0.170 HD
BRANCH  10  12
ATOM     12  C   UNL     1      28.552   1.024  53.072  1.00  0.00     0.044 A 
ATOM     13  C   UNL     1      29.832   1.334  52.549  1.00  0.00     0.052 A 
ATOM     14  C   UNL     1      28.409  -0.154  53.837  1.00  0.00     0.039 A 
ATOM     15  C   UNL     1      30.956   0.573  52.881  1.00  0.00     0.049 A 
ATOM     16  C   UNL     1      29.559  -0.915  54.193  1.00  0.00     0.060 A 
ATOM     17  C   UNL     1      30.807  -0.556  53.680  1.00  0.00     0.039 A 
BRANCH  15  18
ATOM     18  N   UNL     1      32.235   0.897  52.402  1.00  0.00    -0.306 N 
ATOM     19  C   UNL     1      32.869   0.466  51.238  1.00  0.00     0.116 A 
ATOM     20  C   UNL     1      33.162   1.632  53.027  1.00  0.00     0.204 A 
ATOM     21  C   UNL     1      34.123   0.966  51.231  1.00  0.00     0.056 A 
ATOM     22  N   UNL     1      34.276   1.720  52.343  1.00  0.00    -0.242 NA
ATOM     23  C   UNL     1      35.186   0.794  50.173  1.00  0.00     0.068 C 
ENDBRANCH  15  18
BRANCH  16  24
ATOM     24  C   UNL     1      29.386  -2.124  55.055  1.00  0.00     0.416 C 
ATOM     25  F   UNL     1      28.770  -3.165  54.459  1.00  0.00    -0.166 F 
ATOM     26  F   UNL     1      30.561  -2.650  55.381  1.00  0.00    -0.166 F 
ATOM     27  F   UNL     1      28.614  -1.879  56.134  1.00  0.00    -0.166 F 
ENDBRANCH  16  24
ENDBRANCH  10  12
ENDBRANCH   1   8
BRANCH   6  28
ATOM     28  N   UNL     1      23.576   4.724  54.075  1.00  0.00    -0.324 N 
ATOM     29  H   UNL     1      22.997   4.079  54.630  1.00  0.00     0.170 HD
BRANCH  28  30
ATOM     30  C   UNL     1      23.794   6.031  54.518  1.00  0.00     0.227 A 
ATOM     31  N   UNL     1      24.799   6.507  55.243  1.00  0.00    -0.221 NA
ATOM     32  N   UNL     1      22.725   6.777  54.141  1.00  0.00    -0.213 NA
ATOM     33  C   UNL     1      24.742   7.811  55.572  1.00  0.00     0.117 A 
ATOM     34  C   UNL     1      22.698   8.060  54.520  1.00  0.00     0.077 A 
ATOM     35  C   UNL     1      23.705   8.596  55.243  1.00  0.00     0.049 A 
BRANCH  34  36
ATOM     36  C   UNL     1      21.524   8.843  54.053  1.00  0.00     0.019 A 
ATOM     37  C   UNL     1      20.211   8.457  54.366  1.00  0.00     0.013 A 
ATOM     38  C   UNL     1      21.701   9.997  53.264  1.00  0.00     0.121 A 
ATOM     39  C   UNL     1      19.151   9.213  53.881  1.00  0.00     0.021 A 
ATOM     40  N   UNL     1      20.683  10.725  52.787  1.00  0.00    -0.264 NA
ATOM     41  C   UNL     1      19.439  10.347  53.123  1.00  0.00     0.111 A 
ENDBRANCH  34  36
ENDBRANCH  28  30
ENDBRANCH   6  28
TORSDOF 7
ENDMDL
MODEL 10
REMARK VINA RESULT:   -11.123      2.696      5.102
REMARK INTER + INTRA:         -14.842
REMARK INTER:                 -13.211
REMARK INTRA:                  -1.631
REMARK CONF_INDEPENDENT:        2.088
REMARK UNBOUND:                -1.631
REMARK SMILES Cc1cn(-c2cc(NC(=O)c3ccc(C)c(Nc4nccc(-c5cccnc5)n4)c3)cc(C(F)(F)F)c2)cn1
REMARK SMILES IDX 11 1 12 2 13 3 14 4 15 5 16 6 30 7 9 8 10 9 8 10 7 12 6 13
REMARK SMILES IDX 31 14 5 15 32 16 37 17 4 18 3 19 38 20 2 21 39 22 1 23 33 24
REMARK SMILES IDX 34 25 35 26 36 27 17 28 18 30 19 31 29 32 20 33 22 34 21 35
REMARK SMILES IDX 23 36 24 37 28 38 25 39 27 40 26 41
REMARK H PARENT 8 11 17 29
ROOT
ATOM      1  C   UNL     1      27.939   1.188  53.377  1.00  0.00     0.042 A 
ATOM      2  C   UNL     1      27.611   0.515  54.564  1.00  0.00     0.014 A 
ATOM      3  C   UNL     1      28.322  -0.611  54.981  1.00  0.00     0.006 A 
ATOM      4  C   UNL     1      29.326  -1.158  54.198  1.00  0.00    -0.027 A 
ATOM      5  C   UNL     1      30.088  -2.391  54.662  1.00  0.00     0.046 C 
ATOM      6  C   UNL     1      29.587  -0.555  52.968  1.00  0.00     0.045 A 
ATOM      7  C   UNL     1      28.879   0.590  52.579  1.00  0.00     0.040 A 
ENDROOT
BRANCH   1   8
ATOM      8  C   UNL     1      27.164   2.304  52.799  1.00  0.00     0.255 C 
ATOM      9  O   UNL     1      27.513   2.662  51.700  1.00  0.00    -0.269 OA
ATOM     10  N   UNL     1      26.023   2.621  53.429  1.00  0.00    -0.322 N 
ATOM     11  H   UNL     1      25.812   2.111  54.298  1.00  0.00     0.170 HD
BRANCH  10  12
ATOM     12  C   UNL     1      25.101   3.575  53.017  1.00  0.00     0.044 A 
ATOM     13  C   UNL     1      24.893   3.837  51.640  1.00  0.00     0.052 A 
ATOM     14  C   UNL     1      24.440   4.390  53.962  1.00  0.00     0.039 A 
ATOM     15  C   UNL     1      23.961   4.788  51.215  1.00  0.00     0.049 A 
ATOM     16  C   UNL     1      23.474   5.342  53.527  1.00  0.00     0.060 A 
ATOM     17  C   UNL     1      23.277   5.547  52.160  1.00  0.00     0.039 A 
BRANCH  15  18
ATOM     18  N   UNL     1      23.716   5.025  49.854  1.00  0.00    -0.306 N 
ATOM     19  C   UNL     1      23.570   6.241  49.190  1.00  0.00     0.116 A 
ATOM     20  C   UNL     1      23.478   4.106  48.911  1.00  0.00     0.204 A 
ATOM     21  C   UNL     1      23.261   5.984  47.900  1.00  0.00     0.056 A 
ATOM     22  N   UNL     1      23.240   4.642  47.739  1.00  0.00    -0.242 NA
ATOM     23  C   UNL     1      23.025   6.974  46.785  1.00  0.00     0.068 C 
ENDBRANCH  15  18
BRANCH  16  24
ATOM     24  C   UNL     1      22.745   6.148  54.552  1.00  0.00     0.416 C 
ATOM     25  F   UNL     1      21.870   5.454  55.307  1.00  0.00    -0.166 F 
ATOM     26  F   UNL     1      23.580   6.625  55.468  1.00  0.00    -0.166 F 
ATOM     27  F   UNL     1      21.982   7.114  53.998  1.00  0.00    -0.166 F 
ENDBRANCH  16  24
ENDBRANCH  10  12
ENDBRANCH   1   8
BRANCH   6  28
ATOM     28  N   UNL     1      30.700  -0.987  52.236  1.00  0.00    -0.324 N 
ATOM     29  H   UNL     1      30.658  -1.864  51.697  1.00  0.00     0.170 HD
BRANCH  28  30
ATOM     30  C   UNL     1      31.867  -0.221  52.243  1.00  0.00     0.227 A 
ATOM     31  N   UNL     1      32.947  -0.341  51.481  1.00  0.00    -0.221 NA
ATOM     32  N   UNL     1      31.765   0.676  53.258  1.00  0.00    -0.213 NA
ATOM     33  C   UNL     1      33.960   0.510  51.728  1.00  0.00     0.117 A 
ATOM     34  C   UNL     1      32.810   1.479  53.486  1.00  0.00     0.077 A 
ATOM     35  C   UNL     1      33.924   1.407  52.726  1.00  0.00     0.049 A 
BRANCH  34  36
ATOM     36  C   UNL     1      32.635   2.465  54.584  1.00  0.00     0.019 A 
ATOM     37  C   UNL     1      31.580   2.361  55.505  1.00  0.00     0.013 A 
ATOM     38  C   UNL     1      33.524   3.549  54.720  1.00  0.00     0.121 A 
ATOM     39  C   UNL     1      31.451   3.326  56.495  1.00  0.00     0.021 A 
ATOM     40  N   UNL     1      33.400   4.487  55.668  1.00  0.00    -0.264 NA
ATOM     41  C   UNL     1      32.397   4.349  56.551  1.00  0.00     0.111 A 
ENDBRANCH  34  36
ENDBRANCH  28  30
ENDBRANCH   6  28
TORSDOF 7
ENDMDL
MODEL 11
REMARK VINA RESULT:   -11.074      1.649      2.460
REMARK INTER + INTRA:         -14.324
REMARK INTER:                 -13.162
REMARK INTRA:                  -1.162
REMARK CONF_INDEPENDENT:        2.088
REMARK UNBOUND:                -1.162
REMARK SMILES Cc1cn(-c2cc(NC(=O)c3ccc(C)c(Nc4nccc(-c5cccnc5)n4)c3)cc(C(F)(F)F)c2)cn1
REMARK SMILES IDX 11 1 12 2 13 3 14 4 15 5 16 6 30 7 9 8 10 9 8 10 7 12 6 13
REMARK SMILES IDX 31 14 5 15 32 16 37 17 4 18 3 19 38 20 2 21 39 22 1 23 33 24
REMARK SMILES IDX 34 25 35 26 36 27 17 28 18 30 19 31 29 32 20 33 22 34 21 35
REMARK SMILES IDX 23 36 24 37 28 38 25 39 27 40 26 41
REMARK H PARENT 8 11 17 29
ROOT
ATOM      1  C   UNL     1      27.060   2.333  52.453  1.00  0.00     0.042 A 
ATOM      2  C   UNL     1      27.218   1.203  51.636  1.00  0.00     0.014 A 
ATOM      3  C   UNL     1      28.167   0.222  51.927  1.00  0.00     0.006 A 
ATOM      4  C   UNL     1      29.046   0.365  52.988  1.00  0.00    -0.027 A 
ATOM      5  C   UNL     1      30.081  -0.710  53.289  1.00  0.00     0.046 C 
ATOM      6  C   UNL     1      28.963   1.535  53.742  1.00  0.00     0.045 A 
ATOM      7  C   UNL     1      27.988   2.496  53.449  1.00  0.00     0.040 A 
ENDROOT
BRANCH   1   8
ATOM      8  C   UNL     1      26.175   3.475  52.152  1.00  0.00     0.255 C 
ATOM      9  O   UNL     1      26.013   3.709  50.979  1.00  0.00    -0.269 OA
ATOM     10  N   UNL     1      25.462   3.958  53.180  1.00  0.00    -0.322 N 
ATOM     11  H   UNL     1      25.636   3.542  54.106  1.00  0.00     0.170 HD
BRANCH  10  12
ATOM     12  C   UNL     1      24.511   4.969  53.110  1.00  0.00     0.044 A 
ATOM     13  C   UNL     1      23.780   5.360  54.259  1.00  0.00     0.052 A 
ATOM     14  C   UNL     1      24.166   5.545  51.868  1.00  0.00     0.039 A 
ATOM     15  C   UNL     1      22.829   6.383  54.200  1.00  0.00     0.049 A 
ATOM     16  C   UNL     1      23.213   6.602  51.814  1.00  0.00     0.060 A 
ATOM     17  C   UNL     1      22.537   6.978  52.977  1.00  0.00     0.039 A 
BRANCH  15  18
ATOM     18  N   UNL     1      22.130   6.806  55.341  1.00  0.00    -0.306 N 
ATOM     19  C   UNL     1      22.577   6.898  56.658  1.00  0.00     0.116 A 
ATOM     20  C   UNL     1      20.834   7.130  55.411  1.00  0.00     0.204 A 
ATOM     21  C   UNL     1      21.534   7.271  57.432  1.00  0.00     0.056 A 
ATOM     22  N   UNL     1      20.461   7.444  56.628  1.00  0.00    -0.242 NA
ATOM     23  C   UNL     1      21.526   7.521  58.921  1.00  0.00     0.068 C 
ENDBRANCH  15  18
BRANCH  16  24
ATOM     24  C   UNL     1      22.911   7.235  50.495  1.00  0.00     0.416 C 
ATOM     25  F   UNL     1      23.916   7.189  49.598  1.00  0.00    -0.166 F 
ATOM     26  F   UNL     1      21.946   6.579  49.861  1.00  0.00    -0.166 F 
ATOM     27  F   UNL     1      22.651   8.554  50.606  1.00  0.00    -0.166 F 
ENDBRANCH  16  24
ENDBRANCH  10  12
ENDBRANCH   1   8
BRANCH   6  28
ATOM     28  N   UNL     1      29.728   1.629  54.912  1.00  0.00    -0.324 N 
ATOM     29  H   UNL     1      29.338   1.321  55.814  1.00  0.00     0.170 HD
BRANCH  28  30
ATOM     30  C   UNL     1      31.024   2.144  54.846  1.00  0.00     0.227 A 
ATOM     31  N   UNL     1      31.564   3.132  55.548  1.00  0.00    -0.221 NA
ATOM     32  N   UNL     1      31.673   1.498  53.843  1.00  0.00    -0.213 NA
ATOM     33  C   UNL     1      32.836   3.462  55.251  1.00  0.00     0.117 A 
ATOM     34  C   UNL     1      32.924   1.882  53.564  1.00  0.00     0.077 A 
ATOM     35  C   UNL     1      33.524   2.871  54.261  1.00  0.00     0.049 A 
BRANCH  34  36
ATOM     36  C   UNL     1      33.603   1.121  52.482  1.00  0.00     0.019 A 
ATOM     37  C   UNL     1      34.992   0.917  52.487  1.00  0.00     0.013 A 
ATOM     38  C   UNL     1      32.863   0.593  51.406  1.00  0.00     0.121 A 
ATOM     39  C   UNL     1      35.575   0.220  51.437  1.00  0.00     0.021 A 
ATOM     40  N   UNL     1      33.421  -0.073  50.387  1.00  0.00    -0.264 NA
ATOM     41  C   UNL     1      34.747  -0.276  50.430  1.00  0.00     0.111 A 
ENDBRANCH  34  36
ENDBRANCH  28  30
ENDBRANCH   6  28
TORSDOF 7
ENDMDL
MODEL 12
REMARK VINA RESULT:   -11.034      4.705      8.356
REMARK INTER + INTRA:         -14.092
REMARK INTER:                 -13.122
REMARK INTRA:                  -0.969
REMARK CONF_INDEPENDENT:        2.088
REMARK UNBOUND:                -0.969
REMARK SMILES Cc1cn(-c2cc(NC(=O)c3ccc(C)c(Nc4nccc(-c5cccnc5)n4)c3)cc(C(F)(F)F)c2)cn1
REMARK SMILES IDX 11 1 12 2 13 3 14 4 15 5 16 6 30 7 9 8 10 9 8 10 7 12 6 13
REMARK SMILES IDX 31 14 5 15 32 16 37 17 4 18 3 19 38 20 2 21 39 22 1 23 33 24
REMARK SMILES IDX 34 25 35 26 36 27 17 28 18 30 19 31 29 32 20 33 22 34 21 35
REMARK SMILES IDX 23 36 24 37 28 38 25 39 27 40 26 41
REMARK H PARENT 8 11 17 29
ROOT
ATOM      1  C   UNL     1      34.329  -0.643  50.652  1.00  0.00     0.042 A 
ATOM      2  C   UNL     1      34.433  -1.923  50.086  1.00  0.00     0.014 A 
ATOM      3  C   UNL     1      35.466  -2.246  49.205  1.00  0.00     0.006 A 
ATOM      4  C   UNL     1      36.381  -1.293  48.790  1.00  0.00    -0.027 A 
ATOM      5  C   UNL     1      37.498  -1.658  47.823  1.00  0.00     0.046 C 
ATOM      6  C   UNL     1      36.222   0.007  49.268  1.00  0.00     0.045 A 
ATOM      7  C   UNL     1      35.194   0.305  50.172  1.00  0.00     0.040 A 
ENDROOT
BRANCH   1   8
ATOM      8  C   UNL     1      33.205  -0.179  51.488  1.00  0.00     0.255 C 
ATOM      9  O   UNL     1      33.258   0.976  51.834  1.00  0.00    -0.269 OA
ATOM     10  N   UNL     1      32.144  -0.997  51.560  1.00  0.00    -0.322 N 
ATOM     11  H   UNL     1      32.223  -1.908  51.085  1.00  0.00     0.170 HD
BRANCH  10  12
ATOM     12  C   UNL     1      30.950  -0.729  52.217  1.00  0.00     0.044 A 
ATOM     13  C   UNL     1      30.149   0.380  51.846  1.00  0.00     0.052 A 
ATOM     14  C   UNL     1      30.567  -1.484  53.347  1.00  0.00     0.039 A 
ATOM     15  C   UNL     1      28.941   0.652  52.494  1.00  0.00     0.049 A 
ATOM     16  C   UNL     1      29.325  -1.219  53.992  1.00  0.00     0.060 A 
ATOM     17  C   UNL     1      28.551  -0.133  53.574  1.00  0.00     0.039 A 
BRANCH  15  18
ATOM     18  N   UNL     1      28.121   1.722  52.107  1.00  0.00    -0.306 N 
ATOM     19  C   UNL     1      27.158   2.401  52.851  1.00  0.00     0.116 A 
ATOM     20  C   UNL     1      28.031   2.262  50.885  1.00  0.00     0.204 A 
ATOM     21  C   UNL     1      26.557   3.301  52.043  1.00  0.00     0.056 A 
ATOM     22  N   UNL     1      27.140   3.221  50.826  1.00  0.00    -0.242 NA
ATOM     23  C   UNL     1      25.465   4.283  52.395  1.00  0.00     0.068 C 
ENDBRANCH  15  18
BRANCH  16  24
ATOM     24  C   UNL     1      28.916  -2.072  55.148  1.00  0.00     0.416 C 
ATOM     25  F   UNL     1      28.293  -1.416  56.148  1.00  0.00    -0.166 F 
ATOM     26  F   UNL     1      27.996  -2.958  54.786  1.00  0.00    -0.166 F 
ATOM     27  F   UNL     1      29.972  -2.646  55.761  1.00  0.00    -0.166 F 
ENDBRANCH  16  24
ENDBRANCH  10  12
ENDBRANCH   1   8
BRANCH   6  28
ATOM     28  N   UNL     1      37.225   0.946  48.994  1.00  0.00    -0.324 N 
ATOM     29  H   UNL     1      36.978   1.883  48.648  1.00  0.00     0.170 HD
BRANCH  28  30
ATOM     30  C   UNL     1      38.563   0.600  49.194  1.00  0.00     0.227 A 
ATOM     31  N   UNL     1      39.103  -0.101  50.183  1.00  0.00    -0.221 NA
ATOM     32  N   UNL     1      39.291   1.185  48.208  1.00  0.00    -0.213 NA
ATOM     33  C   UNL     1      40.441  -0.254  50.157  1.00  0.00     0.117 A 
ATOM     34  C   UNL     1      40.620   1.032  48.243  1.00  0.00     0.077 A 
ATOM     35  C   UNL     1      41.215   0.313  49.218  1.00  0.00     0.049 A 
BRANCH  34  36
ATOM     36  C   UNL     1      41.368   1.662  47.123  1.00  0.00     0.019 A 
ATOM     37  C   UNL     1      42.757   1.859  47.185  1.00  0.00     0.013 A 
ATOM     38  C   UNL     1      40.693   2.095  45.965  1.00  0.00     0.121 A 
ATOM     39  C   UNL     1      43.400   2.475  46.120  1.00  0.00     0.021 A 
ATOM     40  N   UNL     1      41.305   2.697  44.938  1.00  0.00    -0.264 NA
ATOM     41  C   UNL     1      42.638   2.850  45.013  1.00  0.00     0.111 A 
ENDBRANCH  34  36
ENDBRANCH  28  30
ENDBRANCH   6  28
TORSDOF 7
ENDMDL
MODEL 13
REMARK VINA RESULT:   -10.974      4.582      7.514
REMARK INTER + INTRA:         -13.828
REMARK INTER:                 -13.062
REMARK INTRA:                  -0.767
REMARK CONF_INDEPENDENT:        2.088
REMARK UNBOUND:                -0.767
REMARK SMILES Cc1cn(-c2cc(NC(=O)c3ccc(C)c(Nc4nccc(-c5cccnc5)n4)c3)cc(C(F)(F)F)c2)cn1
REMARK SMILES IDX 11 1 12 2 13 3 14 4 15 5 16 6 30 7 9 8 10 9 8 10 7 12 6 13
REMARK SMILES IDX 31 14 5 15 32 16 37 17 4 18 3 19 38 20 2 21 39 22 1 23 33 24
REMARK SMILES IDX 34 25 35 26 36 27 17 28 18 30 19 31 29 32 20 33 22 34 21 35
REMARK SMILES IDX 23 36 24 37 28 38 25 39 27 40 26 41
REMARK H PARENT 8 11 17 29
ROOT
ATOM      1  C   UNL     1      23.040   5.927  52.930  1.00  0.00     0.042 A 
ATOM      2  C   UNL     1      22.820   5.756  51.555  1.00  0.00     0.014 A 
ATOM      3  C   UNL     1      23.457   4.744  50.837  1.00  0.00     0.006 A 
ATOM      4  C   UNL     1      24.396   3.919  51.436  1.00  0.00    -0.027 A 
ATOM      5  C   UNL     1      25.089   2.824  50.639  1.00  0.00     0.046 C 
ATOM      6  C   UNL     1      24.696   4.151  52.778  1.00  0.00     0.045 A 
ATOM      7  C   UNL     1      24.027   5.156  53.487  1.00  0.00     0.040 A 
ENDROOT
BRANCH   1   8
ATOM      8  C   UNL     1      22.510   7.043  53.737  1.00  0.00     0.255 C 
ATOM      9  O   UNL     1      23.341   7.753  54.249  1.00  0.00    -0.269 OA
ATOM     10  N   UNL     1      21.198   7.295  53.610  1.00  0.00    -0.322 N 
ATOM     11  H   UNL     1      20.655   6.653  53.015  1.00  0.00     0.170 HD
BRANCH  10  12
ATOM     12  C   UNL     1      20.506   8.341  54.206  1.00  0.00     0.044 A 
ATOM     13  C   UNL     1      19.476   9.022  53.511  1.00  0.00     0.052 A 
ATOM     14  C   UNL     1      20.895   8.830  55.473  1.00  0.00     0.039 A 
ATOM     15  C   UNL     1      18.768  10.069  54.106  1.00  0.00     0.049 A 
ATOM     16  C   UNL     1      20.158   9.882  56.087  1.00  0.00     0.060 A 
ATOM     17  C   UNL     1      19.129  10.505  55.377  1.00  0.00     0.039 A 
BRANCH  15  18
ATOM     18  N   UNL     1      17.718  10.721  53.442  1.00  0.00    -0.306 N 
ATOM     19  C   UNL     1      16.579  11.318  53.979  1.00  0.00     0.116 A 
ATOM     20  C   UNL     1      17.549  10.825  52.119  1.00  0.00     0.204 A 
ATOM     21  C   UNL     1      15.804  11.744  52.958  1.00  0.00     0.056 A 
ATOM     22  N   UNL     1      16.444  11.456  51.803  1.00  0.00    -0.242 NA
ATOM     23  C   UNL     1      14.481  12.467  53.034  1.00  0.00     0.068 C 
ENDBRANCH  15  18
BRANCH  16  24
ATOM     24  C   UNL     1      20.554  10.339  57.453  1.00  0.00     0.416 C 
ATOM     25  F   UNL     1      19.648  11.116  58.079  1.00  0.00    -0.166 F 
ATOM     26  F   UNL     1      20.658   9.311  58.288  1.00  0.00    -0.166 F 
ATOM     27  F   UNL     1      21.665  11.104  57.437  1.00  0.00    -0.166 F 
ENDBRANCH  16  24
ENDBRANCH  10  12
ENDBRANCH   1   8
BRANCH   6  28
ATOM     28  N   UNL     1      25.516   3.232  53.445  1.00  0.00    -0.324 N 
ATOM     29  H   UNL     1      25.195   2.785  54.315  1.00  0.00     0.170 HD
BRANCH  28  30
ATOM     30  C   UNL     1      26.774   2.927  52.921  1.00  0.00     0.227 A 
ATOM     31  N   UNL     1      27.469   3.574  51.994  1.00  0.00    -0.221 NA
ATOM     32  N   UNL     1      27.178   1.755  53.476  1.00  0.00    -0.213 NA
ATOM     33  C   UNL     1      28.649   3.034  51.636  1.00  0.00     0.117 A 
ATOM     34  C   UNL     1      28.343   1.242  53.065  1.00  0.00     0.077 A 
ATOM     35  C   UNL     1      29.095   1.872  52.137  1.00  0.00     0.049 A 
BRANCH  34  36
ATOM     36  C   UNL     1      28.758  -0.022  53.728  1.00  0.00     0.019 A 
ATOM     37  C   UNL     1      28.132  -0.478  54.899  1.00  0.00     0.013 A 
ATOM     38  C   UNL     1      29.811  -0.795  53.200  1.00  0.00     0.121 A 
ATOM     39  C   UNL     1      28.578  -1.654  55.489  1.00  0.00     0.021 A 
ATOM     40  N   UNL     1      30.251  -1.925  53.769  1.00  0.00    -0.264 NA
ATOM     41  C   UNL     1      29.617  -2.351  54.874  1.00  0.00     0.111 A 
ENDBRANCH  34  36
ENDBRANCH  28  30
ENDBRANCH   6  28
TORSDOF 7
ENDMDL
MODEL 14
REMARK VINA RESULT:   -10.888      3.886     11.628
REMARK INTER + INTRA:         -14.141
REMARK INTER:                 -12.976
REMARK INTRA:                  -1.165
REMARK CONF_INDEPENDENT:        2.088
REMARK UNBOUND:                -1.165
REMARK SMILES Cc1cn(-c2cc(NC(=O)c3ccc(C)c(Nc4nccc(-c5cccnc5)n4)c3)cc(C(F)(F)F)c2)cn1
REMARK SMILES IDX 11 1 12 2 13 3 14 4 15 5 16 6 30 7 9 8 10 9 8 10 7 12 6 13
REMARK SMILES IDX 31 14 5 15 32 16 37 17 4 18 3 19 38 20 2 21 39 22 1 23 33 24
REMARK SMILES IDX 34 25 35 26 36 27 17 28 18 30 19 31 29 32 20 33 22 34 21 35
REMARK SMILES IDX 23 36 24 37 28 38 25 39 27 40 26 41
REMARK H PARENT 8 11 17 29
ROOT
ATOM      1  C   UNL     1      25.643   3.600  51.833  1.00  0.00     0.042 A 
ATOM      2  C   UNL     1      24.610   3.058  51.054  1.00  0.00     0.014 A 
ATOM      3  C   UNL     1      23.304   3.544  51.139  1.00  0.00     0.006 A 
ATOM      4  C   UNL     1      22.961   4.525  52.055  1.00  0.00    -0.027 A 
ATOM      5  C   UNL     1      21.531   5.040  52.141  1.00  0.00     0.046 C 
ATOM      6  C   UNL     1      23.962   4.995  52.903  1.00  0.00     0.045 A 
ATOM      7  C   UNL     1      25.271   4.512  52.786  1.00  0.00     0.040 A 
ENDROOT
BRANCH   1   8
ATOM      8  C   UNL     1      27.018   3.066  51.900  1.00  0.00     0.255 C 
ATOM      9  O   UNL     1      27.586   2.962  50.841  1.00  0.00    -0.269 OA
ATOM     10  N   UNL     1      27.566   2.995  53.123  1.00  0.00    -0.322 N 
ATOM     11  H   UNL     1      26.966   3.254  53.919  1.00  0.00     0.170 HD
BRANCH  10  12
ATOM     12  C   UNL     1      28.867   2.605  53.412  1.00  0.00     0.044 A 
ATOM     13  C   UNL     1      29.520   1.617  52.634  1.00  0.00     0.052 A 
ATOM     14  C   UNL     1      29.525   3.095  54.561  1.00  0.00     0.039 A 
ATOM     15  C   UNL     1      30.833   1.225  52.911  1.00  0.00     0.049 A 
ATOM     16  C   UNL     1      30.870   2.711  54.829  1.00  0.00     0.060 A 
ATOM     17  C   UNL     1      31.487   1.757  54.018  1.00  0.00     0.039 A 
BRANCH  15  18
ATOM     18  N   UNL     1      31.503   0.279  52.121  1.00  0.00    -0.306 N 
ATOM     19  C   UNL     1      31.135  -0.247  50.884  1.00  0.00     0.116 A 
ATOM     20  C   UNL     1      32.613  -0.394  52.446  1.00  0.00     0.204 A 
ATOM     21  C   UNL     1      32.039  -1.191  50.541  1.00  0.00     0.056 A 
ATOM     22  N   UNL     1      32.974  -1.244  51.516  1.00  0.00    -0.242 NA
ATOM     23  C   UNL     1      32.079  -2.026  49.284  1.00  0.00     0.068 C 
ENDBRANCH  15  18
BRANCH  16  24
ATOM     24  C   UNL     1      31.562   3.292  56.019  1.00  0.00     0.416 C 
ATOM     25  F   UNL     1      31.649   2.472  57.085  1.00  0.00    -0.166 F 
ATOM     26  F   UNL     1      32.841   3.536  55.755  1.00  0.00    -0.166 F 
ATOM     27  F   UNL     1      30.922   4.375  56.508  1.00  0.00    -0.166 F 
ENDBRANCH  16  24
ENDBRANCH  10  12
ENDBRANCH   1   8
BRANCH   6  28
ATOM     28  N   UNL     1      23.679   6.096  53.722  1.00  0.00    -0.324 N 
ATOM     29  H   UNL     1      22.833   6.661  53.559  1.00  0.00     0.170 HD
BRANCH  28  30
ATOM     30  C   UNL     1      24.553   6.423  54.760  1.00  0.00     0.227 A 
ATOM     31  N   UNL     1      25.879   6.370  54.780  1.00  0.00    -0.221 NA
ATOM     32  N   UNL     1      23.802   6.750  55.843  1.00  0.00    -0.213 NA
ATOM     33  C   UNL     1      26.481   6.702  55.938  1.00  0.00     0.117 A 
ATOM     34  C   UNL     1      24.444   7.042  56.980  1.00  0.00     0.077 A 
ATOM     35  C   UNL     1      25.793   7.020  57.046  1.00  0.00     0.049 A 
BRANCH  34  36
ATOM     36  C   UNL     1      23.580   7.428  58.126  1.00  0.00     0.019 A 
ATOM     37  C   UNL     1      24.100   8.089  59.250  1.00  0.00     0.013 A 
ATOM     38  C   UNL     1      22.204   7.123  58.118  1.00  0.00     0.121 A 
ATOM     39  C   UNL     1      23.249   8.402  60.302  1.00  0.00     0.021 A 
ATOM     40  N   UNL     1      21.381   7.416  59.133  1.00  0.00    -0.264 NA
ATOM     41  C   UNL     1      21.899   8.071  60.184  1.00  0.00     0.111 A 
ENDBRANCH  34  36
ENDBRANCH  28  30
ENDBRANCH   6  28
TORSDOF 7
ENDMDL
MODEL 15
REMARK VINA RESULT:   -10.888      8.366     15.260
REMARK INTER + INTRA:         -14.283
REMARK INTER:                 -12.976
REMARK INTRA:                  -1.307
REMARK CONF_INDEPENDENT:        2.088
REMARK UNBOUND:                -1.307
REMARK SMILES Cc1cn(-c2cc(NC(=O)c3ccc(C)c(Nc4nccc(-c5cccnc5)n4)c3)cc(C(F)(F)F)c2)cn1
REMARK SMILES IDX 11 1 12 2 13 3 14 4 15 5 16 6 30 7 9 8 10 9 8 10 7 12 6 13
REMARK SMILES IDX 31 14 5 15 32 16 37 17 4 18 3 19 38 20 2 21 39 22 1 23 33 24
REMARK SMILES IDX 34 25 35 26 36 27 17 28 18 30 19 31 29 32 20 33 22 34 21 35
REMARK SMILES IDX 23 36 24 37 28 38 25 39 27 40 26 41
REMARK H PARENT 8 11 17 29
ROOT
ATOM      1  C   UNL     1      35.988  -1.647  49.249  1.00  0.00     0.042 A 
ATOM      2  C   UNL     1      35.213  -2.812  49.142  1.00  0.00     0.014 A 
ATOM      3  C   UNL     1      33.841  -2.798  49.398  1.00  0.00     0.006 A 
ATOM      4  C   UNL     1      33.205  -1.651  49.848  1.00  0.00    -0.027 A 
ATOM      5  C   UNL     1      31.710  -1.653  50.130  1.00  0.00     0.046 C 
ATOM      6  C   UNL     1      33.989  -0.517  50.055  1.00  0.00     0.045 A 
ATOM      7  C   UNL     1      35.360  -0.545  49.769  1.00  0.00     0.040 A 
ENDROOT
BRANCH   1   8
ATOM      8  C   UNL     1      37.457  -1.597  49.121  1.00  0.00     0.255 C 
ATOM      9  O   UNL     1      38.043  -1.120  50.062  1.00  0.00    -0.269 OA
ATOM     10  N   UNL     1      37.988  -2.303  48.111  1.00  0.00    -0.322 N 
ATOM     11  H   UNL     1      37.330  -2.766  47.468  1.00  0.00     0.170 HD
BRANCH  10  12
ATOM     12  C   UNL     1      39.343  -2.466  47.853  1.00  0.00     0.044 A 
ATOM     13  C   UNL     1      39.908  -2.028  46.629  1.00  0.00     0.052 A 
ATOM     14  C   UNL     1      40.165  -3.180  48.752  1.00  0.00     0.039 A 
ATOM     15  C   UNL     1      41.272  -2.178  46.364  1.00  0.00     0.049 A 
ATOM     16  C   UNL     1      41.558  -3.312  48.491  1.00  0.00     0.060 A 
ATOM     17  C   UNL     1      42.080  -2.838  47.285  1.00  0.00     0.039 A 
BRANCH  15  18
ATOM     18  N   UNL     1      41.848  -1.710  45.174  1.00  0.00    -0.306 N 
ATOM     19  C   UNL     1      42.150  -0.401  44.803  1.00  0.00     0.116 A 
ATOM     20  C   UNL     1      42.150  -2.435  44.090  1.00  0.00     0.204 A 
ATOM     21  C   UNL     1      42.613  -0.418  43.534  1.00  0.00     0.056 A 
ATOM     22  N   UNL     1      42.636  -1.704  43.118  1.00  0.00    -0.242 NA
ATOM     23  C   UNL     1      43.087   0.749  42.702  1.00  0.00     0.068 C 
ENDBRANCH  15  18
BRANCH  16  24
ATOM     24  C   UNL     1      42.415  -4.020  49.489  1.00  0.00     0.416 C 
ATOM     25  F   UNL     1      43.643  -3.492  49.662  1.00  0.00    -0.166 F 
ATOM     26  F   UNL     1      41.902  -3.927  50.710  1.00  0.00    -0.166 F 
ATOM     27  F   UNL     1      42.671  -5.296  49.133  1.00  0.00    -0.166 F 
ENDBRANCH  16  24
ENDBRANCH  10  12
ENDBRANCH   1   8
BRANCH   6  28
ATOM     28  N   UNL     1      33.347   0.692  50.351  1.00  0.00    -0.324 N 
ATOM     29  H   UNL     1      33.004   1.297  49.592  1.00  0.00     0.170 HD
BRANCH  28  30
ATOM     30  C   UNL     1      33.175   1.070  51.684  1.00  0.00     0.227 A 
ATOM     31  N   UNL     1      33.880   1.935  52.402  1.00  0.00    -0.221 NA
ATOM     32  N   UNL     1      32.165   0.320  52.198  1.00  0.00    -0.213 NA
ATOM     33  C   UNL     1      33.525   2.082  53.693  1.00  0.00     0.117 A 
ATOM     34  C   UNL     1      31.870   0.479  53.493  1.00  0.00     0.077 A 
ATOM     35  C   UNL     1      32.547   1.360  54.261  1.00  0.00     0.049 A 
BRANCH  34  36
ATOM     36  C   UNL     1      30.736  -0.338  53.998  1.00  0.00     0.019 A 
ATOM     37  C   UNL     1      29.633   0.250  54.637  1.00  0.00     0.013 A 
ATOM     38  C   UNL     1      30.746  -1.740  53.860  1.00  0.00     0.121 A 
ATOM     39  C   UNL     1      28.613  -0.565  55.111  1.00  0.00     0.021 A 
ATOM     40  N   UNL     1      29.770  -2.532  54.322  1.00  0.00    -0.264 NA
ATOM     41  C   UNL     1      28.715  -1.940  54.906  1.00  0.00     0.111 A 
ENDBRANCH  34  36
ENDBRANCH  28  30
ENDBRANCH   6  28
TORSDOF 7
ENDMDL
MODEL 16
REMARK VINA RESULT:   -10.800      4.581     13.484
REMARK INTER + INTRA:         -14.222
REMARK INTER:                 -12.889
REMARK INTRA:                  -1.333
REMARK CONF_INDEPENDENT:        2.088
REMARK UNBOUND:                -1.333
REMARK SMILES Cc1cn(-c2cc(NC(=O)c3ccc(C)c(Nc4nccc(-c5cccnc5)n4)c3)cc(C(F)(F)F)c2)cn1
REMARK SMILES IDX 11 1 12 2 13 3 14 4 15 5 16 6 30 7 9 8 10 9 8 10 7 12 6 13
REMARK SMILES IDX 31 14 5 15 32 16 37 17 4 18 3 19 38 20 2 21 39 22 1 23 33 24
REMARK SMILES IDX 34 25 35 26 36 27 17 28 18 30 19 31 29 32 20 33 22 34 21 35
REMARK SMILES IDX 23 36 24 37 28 38 25 39 27 40 26 41
REMARK H PARENT 8 11 17 29
ROOT
ATOM      1  C   UNL     1      21.157   7.168  54.222  1.00  0.00     0.042 A 
ATOM      2  C   UNL     1      20.974   7.334  55.603  1.00  0.00     0.014 A 
ATOM      3  C   UNL     1      20.253   8.413  56.116  1.00  0.00     0.006 A 
ATOM      4  C   UNL     1      19.761   9.408  55.286  1.00  0.00    -0.027 A 
ATOM      5  C   UNL     1      18.983  10.583  55.860  1.00  0.00     0.046 C 
ATOM      6  C   UNL     1      20.029   9.303  53.922  1.00  0.00     0.045 A 
ATOM      7  C   UNL     1      20.733   8.199  53.425  1.00  0.00     0.040 A 
ENDROOT
BRANCH   1   8
ATOM      8  C   UNL     1      22.008   6.132  53.603  1.00  0.00     0.255 C 
ATOM      9  O   UNL     1      21.894   5.023  54.065  1.00  0.00    -0.269 OA
ATOM     10  N   UNL     1      22.612   6.472  52.454  1.00  0.00    -0.322 N 
ATOM     11  H   UNL     1      22.490   7.443  52.131  1.00  0.00     0.170 HD
BRANCH  10  12
ATOM     12  C   UNL     1      23.387   5.635  51.661  1.00  0.00     0.044 A 
ATOM     13  C   UNL     1      24.507   4.955  52.199  1.00  0.00     0.052 A 
ATOM     14  C   UNL     1      23.147   5.538  50.273  1.00  0.00     0.039 A 
ATOM     15  C   UNL     1      25.286   4.104  51.412  1.00  0.00     0.049 A 
ATOM     16  C   UNL     1      23.929   4.653  49.477  1.00  0.00     0.060 A 
ATOM     17  C   UNL     1      25.006   3.978  50.055  1.00  0.00     0.039 A 
BRANCH  15  18
ATOM     18  N   UNL     1      26.372   3.393  51.945  1.00  0.00    -0.306 N 
ATOM     19  C   UNL     1      26.714   3.189  53.281  1.00  0.00     0.116 A 
ATOM     20  C   UNL     1      27.376   2.831  51.261  1.00  0.00     0.204 A 
ATOM     21  C   UNL     1      27.886   2.519  53.319  1.00  0.00     0.056 A 
ATOM     22  N   UNL     1      28.268   2.276  52.045  1.00  0.00    -0.242 NA
ATOM     23  C   UNL     1      28.650   2.051  54.534  1.00  0.00     0.068 C 
ENDBRANCH  15  18
BRANCH  16  24
ATOM     24  C   UNL     1      23.615   4.523  48.022  1.00  0.00     0.416 C 
ATOM     25  F   UNL     1      22.343   4.817  47.685  1.00  0.00    -0.166 F 
ATOM     26  F   UNL     1      24.299   5.408  47.306  1.00  0.00    -0.166 F 
ATOM     27  F   UNL     1      23.775   3.261  47.572  1.00  0.00    -0.166 F 
ENDBRANCH  16  24
ENDBRANCH  10  12
ENDBRANCH   1   8
BRANCH   6  28
ATOM     28  N   UNL     1      19.406  10.204  53.049  1.00  0.00    -0.324 N 
ATOM     29  H   UNL     1      19.968  10.756  52.386  1.00  0.00     0.170 HD
BRANCH  28  30
ATOM     30  C   UNL     1      18.018  10.347  53.085  1.00  0.00     0.227 A 
ATOM     31  N   UNL     1      17.293  11.455  52.997  1.00  0.00    -0.221 NA
ATOM     32  N   UNL     1      17.483   9.120  53.314  1.00  0.00    -0.213 NA
ATOM     33  C   UNL     1      15.958  11.315  53.106  1.00  0.00     0.117 A 
ATOM     34  C   UNL     1      16.154   9.036  53.447  1.00  0.00     0.077 A 
ATOM     35  C   UNL     1      15.372  10.132  53.348  1.00  0.00     0.049 A 
BRANCH  34  36
ATOM     36  C   UNL     1      15.616   7.667  53.661  1.00  0.00     0.019 A 
ATOM     37  C   UNL     1      15.881   6.623  52.761  1.00  0.00     0.013 A 
ATOM     38  C   UNL     1      14.804   7.385  54.777  1.00  0.00     0.121 A 
ATOM     39  C   UNL     1      15.330   5.370  52.999  1.00  0.00     0.021 A 
ATOM     40  N   UNL     1      14.264   6.181  55.008  1.00  0.00    -0.264 NA
ATOM     41  C   UNL     1      14.555   5.194  54.144  1.00  0.00     0.111 A 
ENDBRANCH  34  36
ENDBRANCH  28  30
ENDBRANCH   6  28
TORSDOF 7
ENDMDL
MODEL 17
REMARK VINA RESULT:   -10.617      3.655     12.180
REMARK INTER + INTRA:         -14.017
REMARK INTER:                 -12.705
REMARK INTRA:                  -1.311
REMARK CONF_INDEPENDENT:        2.088
REMARK UNBOUND:                -1.311
REMARK SMILES Cc1cn(-c2cc(NC(=O)c3ccc(C)c(Nc4nccc(-c5cccnc5)n4)c3)cc(C(F)(F)F)c2)cn1
REMARK SMILES IDX 11 1 12 2 13 3 14 4 15 5 16 6 30 7 9 8 10 9 8 10 7 12 6 13
REMARK SMILES IDX 31 14 5 15 32 16 37 17 4 18 3 19 38 20 2 21 39 22 1 23 33 24
REMARK SMILES IDX 34 25 35 26 36 27 17 28 18 30 19 31 29 32 20 33 22 34 21 35
REMARK SMILES IDX 23 36 24 37 28 38 25 39 27 40 26 41
REMARK H PARENT 8 11 17 29
ROOT
ATOM      1  C   UNL     1      25.572   3.756  51.880  1.00  0.00     0.042 A 
ATOM      2  C   UNL     1      24.831   3.948  50.704  1.00  0.00     0.014 A 
ATOM      3  C   UNL     1      23.502   4.370  50.743  1.00  0.00     0.006 A 
ATOM      4  C   UNL     1      22.836   4.537  51.947  1.00  0.00    -0.027 A 
ATOM      5  C   UNL     1      21.383   4.991  51.974  1.00  0.00     0.046 C 
ATOM      6  C   UNL     1      23.535   4.248  53.118  1.00  0.00     0.045 A 
ATOM      7  C   UNL     1      24.877   3.849  53.058  1.00  0.00     0.040 A 
ENDROOT
BRANCH   1   8
ATOM      8  C   UNL     1      26.935   3.192  51.936  1.00  0.00     0.255 C 
ATOM      9  O   UNL     1      27.487   3.065  50.871  1.00  0.00    -0.269 OA
ATOM     10  N   UNL     1      27.497   3.122  53.152  1.00  0.00    -0.322 N 
ATOM     11  H   UNL     1      26.914   3.403  53.953  1.00  0.00     0.170 HD
BRANCH  10  12
ATOM     12  C   UNL     1      28.793   2.706  53.429  1.00  0.00     0.044 A 
ATOM     13  C   UNL     1      29.414   1.695  52.655  1.00  0.00     0.052 A 
ATOM     14  C   UNL     1      29.477   3.196  54.563  1.00  0.00     0.039 A 
ATOM     15  C   UNL     1      30.721   1.277  52.920  1.00  0.00     0.049 A 
ATOM     16  C   UNL     1      30.817   2.785  54.819  1.00  0.00     0.060 A 
ATOM     17  C   UNL     1      31.402   1.807  54.011  1.00  0.00     0.039 A 
BRANCH  15  18
ATOM     18  N   UNL     1      31.359   0.306  52.133  1.00  0.00    -0.306 N 
ATOM     19  C   UNL     1      30.974  -0.211  50.898  1.00  0.00     0.116 A 
ATOM     20  C   UNL     1      32.445  -0.403  52.461  1.00  0.00     0.204 A 
ATOM     21  C   UNL     1      31.845  -1.186  50.558  1.00  0.00     0.056 A 
ATOM     22  N   UNL     1      32.777  -1.268  51.534  1.00  0.00    -0.242 NA
ATOM     23  C   UNL     1      31.857  -2.026  49.304  1.00  0.00     0.068 C 
ENDBRANCH  15  18
BRANCH  16  24
ATOM     24  C   UNL     1      31.538   3.365  55.991  1.00  0.00     0.416 C 
ATOM     25  F   UNL     1      30.900   4.379  56.608  1.00  0.00    -0.166 F 
ATOM     26  F   UNL     1      31.650   2.475  56.970  1.00  0.00    -0.166 F 
ATOM     27  F   UNL     1      32.726   3.905  55.647  1.00  0.00    -0.166 F 
ENDBRANCH  16  24
ENDBRANCH  10  12
ENDBRANCH   1   8
BRANCH   6  28
ATOM     28  N   UNL     1      22.939   4.563  54.345  1.00  0.00    -0.324 N 
ATOM     29  H   UNL     1      22.368   3.864  54.840  1.00  0.00     0.170 HD
BRANCH  28  30
ATOM     30  C   UNL     1      23.126   5.834  54.893  1.00  0.00     0.227 A 
ATOM     31  N   UNL     1      24.140   6.286  55.619  1.00  0.00    -0.221 NA
ATOM     32  N   UNL     1      22.015   6.566  54.624  1.00  0.00    -0.213 NA
ATOM     33  C   UNL     1      24.048   7.554  56.065  1.00  0.00     0.117 A 
ATOM     34  C   UNL     1      21.955   7.809  55.115  1.00  0.00     0.077 A 
ATOM     35  C   UNL     1      22.969   8.321  55.844  1.00  0.00     0.049 A 
BRANCH  34  36
ATOM     36  C   UNL     1      20.734   8.581  54.763  1.00  0.00     0.019 A 
ATOM     37  C   UNL     1      19.537   8.430  55.480  1.00  0.00     0.013 A 
ATOM     38  C   UNL     1      20.745   9.481  53.680  1.00  0.00     0.121 A 
ATOM     39  C   UNL     1      18.420   9.159  55.091  1.00  0.00     0.021 A 
ATOM     40  N   UNL     1      19.669  10.180  53.294  1.00  0.00    -0.264 NA
ATOM     41  C   UNL     1      18.544  10.036  54.014  1.00  0.00     0.111 A 
ENDBRANCH  34  36
ENDBRANCH  28  30
ENDBRANCH   6  28
TORSDOF 7
ENDMDL
MODEL 18
REMARK VINA RESULT:   -10.530      5.703     10.811
REMARK INTER + INTRA:         -13.776
REMARK INTER:                 -12.618
REMARK INTRA:                  -1.158
REMARK CONF_INDEPENDENT:        2.088
REMARK UNBOUND:                -1.158
REMARK SMILES Cc1cn(-c2cc(NC(=O)c3ccc(C)c(Nc4nccc(-c5cccnc5)n4)c3)cc(C(F)(F)F)c2)cn1
REMARK SMILES IDX 11 1 12 2 13 3 14 4 15 5 16 6 30 7 9 8 10 9 8 10 7 12 6 13
REMARK SMILES IDX 31 14 5 15 32 16 37 17 4 18 3 19 38 20 2 21 39 22 1 23 33 24
REMARK SMILES IDX 34 25 35 26 36 27 17 28 18 30 19 31 29 32 20 33 22 34 21 35
REMARK SMILES IDX 23 36 24 37 28 38 25 39 27 40 26 41
REMARK H PARENT 8 11 17 29
ROOT
ATOM      1  C   UNL     1      22.377   6.475  55.215  1.00  0.00     0.042 A 
ATOM      2  C   UNL     1      21.636   7.608  54.845  1.00  0.00     0.014 A 
ATOM      3  C   UNL     1      21.173   8.517  55.798  1.00  0.00     0.006 A 
ATOM      4  C   UNL     1      21.354   8.291  57.153  1.00  0.00    -0.027 A 
ATOM      5  C   UNL     1      20.836   9.287  58.182  1.00  0.00     0.046 C 
ATOM      6  C   UNL     1      21.998   7.115  57.532  1.00  0.00     0.045 A 
ATOM      7  C   UNL     1      22.478   6.228  56.559  1.00  0.00     0.040 A 
ENDROOT
BRANCH   1   8
ATOM      8  C   UNL     1      22.794   5.402  54.291  1.00  0.00     0.255 C 
ATOM      9  O   UNL     1      21.903   4.710  53.865  1.00  0.00    -0.269 OA
ATOM     10  N   UNL     1      24.054   5.470  53.836  1.00  0.00    -0.322 N 
ATOM     11  H   UNL     1      24.648   6.221  54.216  1.00  0.00     0.170 HD
BRANCH  10  12
ATOM     12  C   UNL     1      24.631   4.621  52.901  1.00  0.00     0.044 A 
ATOM     13  C   UNL     1      23.906   4.195  51.760  1.00  0.00     0.052 A 
ATOM     14  C   UNL     1      25.910   4.066  53.128  1.00  0.00     0.039 A 
ATOM     15  C   UNL     1      24.482   3.348  50.809  1.00  0.00     0.049 A 
ATOM     16  C   UNL     1      26.503   3.221  52.146  1.00  0.00     0.060 A 
ATOM     17  C   UNL     1      25.763   2.851  51.021  1.00  0.00     0.039 A 
BRANCH  15  18
ATOM     18  N   UNL     1      23.787   2.955  49.655  1.00  0.00    -0.306 N 
ATOM     19  C   UNL     1      22.960   1.850  49.465  1.00  0.00     0.116 A 
ATOM     20  C   UNL     1      23.852   3.527  48.447  1.00  0.00     0.204 A 
ATOM     21  C   UNL     1      22.578   1.826  48.169  1.00  0.00     0.056 A 
ATOM     22  N   UNL     1      23.121   2.902  47.557  1.00  0.00    -0.242 NA
ATOM     23  C   UNL     1      21.668   0.834  47.487  1.00  0.00     0.068 C 
ENDBRANCH  15  18
BRANCH  16  24
ATOM     24  C   UNL     1      27.881   2.696  52.384  1.00  0.00     0.416 C 
ATOM     25  F   UNL     1      27.963   1.360  52.538  1.00  0.00    -0.166 F 
ATOM     26  F   UNL     1      28.658   2.899  51.326  1.00  0.00    -0.166 F 
ATOM     27  F   UNL     1      28.424   3.177  53.522  1.00  0.00    -0.166 F 
ENDBRANCH  16  24
ENDBRANCH  10  12
ENDBRANCH   1   8
BRANCH   6  28
ATOM     28  N   UNL     1      22.336   6.944  58.881  1.00  0.00    -0.324 N 
ATOM     29  H   UNL     1      21.799   6.294  59.472  1.00  0.00     0.170 HD
BRANCH  28  30
ATOM     30  C   UNL     1      23.406   7.662  59.417  1.00  0.00     0.227 A 
ATOM     31  N   UNL     1      23.689   8.953  59.291  1.00  0.00    -0.221 NA
ATOM     32  N   UNL     1      24.211   6.781  60.065  1.00  0.00    -0.213 NA
ATOM     33  C   UNL     1      24.820   9.385  59.880  1.00  0.00     0.117 A 
ATOM     34  C   UNL     1      25.339   7.252  60.608  1.00  0.00     0.077 A 
ATOM     35  C   UNL     1      25.662   8.560  60.522  1.00  0.00     0.049 A 
BRANCH  34  36
ATOM     36  C   UNL     1      26.167   6.255  61.336  1.00  0.00     0.019 A 
ATOM     37  C   UNL     1      26.396   6.357  62.717  1.00  0.00     0.013 A 
ATOM     38  C   UNL     1      26.760   5.179  60.647  1.00  0.00     0.121 A 
ATOM     39  C   UNL     1      27.199   5.410  63.340  1.00  0.00     0.021 A 
ATOM     40  N   UNL     1      27.541   4.267  61.241  1.00  0.00    -0.264 NA
ATOM     41  C   UNL     1      27.723   4.375  62.567  1.00  0.00     0.111 A 
ENDBRANCH  34  36
ENDBRANCH  28  30
ENDBRANCH   6  28
TORSDOF 7
ENDMDL
MODEL 19
REMARK VINA RESULT:   -10.475      8.332     15.032
REMARK INTER + INTRA:         -13.926
REMARK INTER:                 -12.563
REMARK INTRA:                  -1.363
REMARK CONF_INDEPENDENT:        2.088
REMARK UNBOUND:                -1.363
REMARK SMILES Cc1cn(-c2cc(NC(=O)c3ccc(C)c(Nc4nccc(-c5cccnc5)n4)c3)cc(C(F)(F)F)c2)cn1
REMARK SMILES IDX 11 1 12 2 13 3 14 4 15 5 16 6 30 7 9 8 10 9 8 10 7 12 6 13
REMARK SMILES IDX 31 14 5 15 32 16 37 17 4 18 3 19 38 20 2 21 39 22 1 23 33 24
REMARK SMILES IDX 34 25 35 26 36 27 17 28 18 30 19 31 29 32 20 33 22 34 21 35
REMARK SMILES IDX 23 36 24 37 28 38 25 39 27 40 26 41
REMARK H PARENT 8 11 17 29
ROOT
ATOM      1  C   UNL     1      36.369  -1.530  49.644  1.00  0.00     0.042 A 
ATOM      2  C   UNL     1      35.718  -2.740  49.362  1.00  0.00     0.014 A 
ATOM      3  C   UNL     1      34.326  -2.839  49.389  1.00  0.00     0.006 A 
ATOM      4  C   UNL     1      33.536  -1.769  49.777  1.00  0.00    -0.027 A 
ATOM      5  C   UNL     1      32.020  -1.894  49.810  1.00  0.00     0.046 C 
ATOM      6  C   UNL     1      34.183  -0.594  50.158  1.00  0.00     0.045 A 
ATOM      7  C   UNL     1      35.580  -0.507  50.100  1.00  0.00     0.040 A 
ENDROOT
BRANCH   1   8
ATOM      8  C   UNL     1      37.832  -1.367  49.761  1.00  0.00     0.255 C 
ATOM      9  O   UNL     1      38.198  -0.527  50.546  1.00  0.00    -0.269 OA
ATOM     10  N   UNL     1      38.581  -2.321  49.189  1.00  0.00    -0.322 N 
ATOM     11  H   UNL     1      38.084  -3.050  48.659  1.00  0.00     0.170 HD
BRANCH  10  12
ATOM     12  C   UNL     1      39.966  -2.414  49.246  1.00  0.00     0.044 A 
ATOM     13  C   UNL     1      40.636  -2.550  50.487  1.00  0.00     0.052 A 
ATOM     14  C   UNL     1      40.745  -2.254  48.079  1.00  0.00     0.039 A 
ATOM     15  C   UNL     1      42.028  -2.654  50.554  1.00  0.00     0.049 A 
ATOM     16  C   UNL     1      42.162  -2.383  48.146  1.00  0.00     0.060 A 
ATOM     17  C   UNL     1      42.779  -2.547  49.388  1.00  0.00     0.039 A 
BRANCH  15  18
ATOM     18  N   UNL     1      42.697  -2.831  51.774  1.00  0.00    -0.306 N 
ATOM     19  C   UNL     1      42.576  -3.869  52.696  1.00  0.00     0.116 A 
ATOM     20  C   UNL     1      43.541  -1.972  52.357  1.00  0.00     0.204 A 
ATOM     21  C   UNL     1      43.350  -3.577  53.764  1.00  0.00     0.056 A 
ATOM     22  N   UNL     1      43.971  -2.401  53.518  1.00  0.00    -0.242 NA
ATOM     23  C   UNL     1      43.565  -4.402  55.010  1.00  0.00     0.068 C 
ENDBRANCH  15  18
BRANCH  16  24
ATOM     24  C   UNL     1      42.957  -2.270  46.886  1.00  0.00     0.416 C 
ATOM     25  F   UNL     1      42.447  -1.428  45.965  1.00  0.00    -0.166 F 
ATOM     26  F   UNL     1      44.148  -1.732  47.120  1.00  0.00    -0.166 F 
ATOM     27  F   UNL     1      43.042  -3.443  46.226  1.00  0.00    -0.166 F 
ENDBRANCH  16  24
ENDBRANCH  10  12
ENDBRANCH   1   8
BRANCH   6  28
ATOM     28  N   UNL     1      33.406   0.547  50.396  1.00  0.00    -0.324 N 
ATOM     29  H   UNL     1      32.995   1.068  49.610  1.00  0.00     0.170 HD
BRANCH  28  30
ATOM     30  C   UNL     1      33.195   0.972  51.709  1.00  0.00     0.227 A 
ATOM     31  N   UNL     1      33.862   1.882  52.407  1.00  0.00    -0.221 NA
ATOM     32  N   UNL     1      32.192   0.219  52.230  1.00  0.00    -0.213 NA
ATOM     33  C   UNL     1      33.474   2.071  53.683  1.00  0.00     0.117 A 
ATOM     34  C   UNL     1      31.864   0.420  53.511  1.00  0.00     0.077 A 
ATOM     35  C   UNL     1      32.501   1.347  54.258  1.00  0.00     0.049 A 
BRANCH  34  36
ATOM     36  C   UNL     1      30.738  -0.405  54.023  1.00  0.00     0.019 A 
ATOM     37  C   UNL     1      29.682   0.164  54.752  1.00  0.00     0.013 A 
ATOM     38  C   UNL     1      30.710  -1.795  53.799  1.00  0.00     0.121 A 
ATOM     39  C   UNL     1      28.669  -0.659  55.228  1.00  0.00     0.021 A 
ATOM     40  N   UNL     1      29.741  -2.595  54.261  1.00  0.00    -0.264 NA
ATOM     41  C   UNL     1      28.730  -2.021  54.934  1.00  0.00     0.111 A 
ENDBRANCH  34  36
ENDBRANCH  28  30
ENDBRANCH   6  28
TORSDOF 7
ENDMDL
MODEL 20
REMARK VINA RESULT:   -10.448      3.911     10.995
REMARK INTER + INTRA:         -14.031
REMARK INTER:                 -12.536
REMARK INTRA:                  -1.495
REMARK CONF_INDEPENDENT:        2.088
REMARK UNBOUND:                -1.495
REMARK SMILES Cc1cn(-c2cc(NC(=O)c3ccc(C)c(Nc4nccc(-c5cccnc5)n4)c3)cc(C(F)(F)F)c2)cn1
REMARK SMILES IDX 11 1 12 2 13 3 14 4 15 5 16 6 30 7 9 8 10 9 8 10 7 12 6 13
REMARK SMILES IDX 31 14 5 15 32 16 37 17 4 18 3 19 38 20 2 21 39 22 1 23 33 24
REMARK SMILES IDX 34 25 35 26 36 27 17 28 18 30 19 31 29 32 20 33 22 34 21 35
REMARK SMILES IDX 23 36 24 37 28 38 25 39 27 40 26 41
REMARK H PARENT 8 11 17 29
ROOT
ATOM      1  C   UNL     1      25.440   3.907  51.923  1.00  0.00     0.042 A 
ATOM      2  C   UNL     1      24.779   4.331  50.761  1.00  0.00     0.014 A 
ATOM      3  C   UNL     1      23.466   4.804  50.803  1.00  0.00     0.006 A 
ATOM      4  C   UNL     1      22.737   4.797  51.981  1.00  0.00    -0.027 A 
ATOM      5  C   UNL     1      21.304   5.309  52.011  1.00  0.00     0.046 C 
ATOM      6  C   UNL     1      23.354   4.280  53.119  1.00  0.00     0.045 A 
ATOM      7  C   UNL     1      24.680   3.833  53.061  1.00  0.00     0.040 A 
ENDROOT
BRANCH   1   8
ATOM      8  C   UNL     1      26.775   3.277  51.952  1.00  0.00     0.255 C 
ATOM      9  O   UNL     1      27.263   3.047  50.872  1.00  0.00    -0.269 OA
ATOM     10  N   UNL     1      27.396   3.261  53.140  1.00  0.00    -0.322 N 
ATOM     11  H   UNL     1      26.871   3.626  53.947  1.00  0.00     0.170 HD
BRANCH  10  12
ATOM     12  C   UNL     1      28.683   2.796  53.382  1.00  0.00     0.044 A 
ATOM     13  C   UNL     1      29.243   1.761  52.593  1.00  0.00     0.052 A 
ATOM     14  C   UNL     1      29.416   3.261  54.496  1.00  0.00     0.039 A 
ATOM     15  C   UNL     1      30.540   1.294  52.823  1.00  0.00     0.049 A 
ATOM     16  C   UNL     1      30.746   2.800  54.714  1.00  0.00     0.060 A 
ATOM     17  C   UNL     1      31.270   1.799  53.893  1.00  0.00     0.039 A 
BRANCH  15  18
ATOM     18  N   UNL     1      31.119   0.299  52.021  1.00  0.00    -0.306 N 
ATOM     19  C   UNL     1      32.467   0.002  51.830  1.00  0.00     0.116 A 
ATOM     20  C   UNL     1      30.480  -0.528  51.184  1.00  0.00     0.204 A 
ATOM     21  C   UNL     1      32.557  -0.978  50.905  1.00  0.00     0.056 A 
ATOM     22  N   UNL     1      31.301  -1.318  50.537  1.00  0.00    -0.242 NA
ATOM     23  C   UNL     1      33.803  -1.648  50.380  1.00  0.00     0.068 C 
ENDBRANCH  15  18
BRANCH  16  24
ATOM     24  C   UNL     1      31.521   3.354  55.866  1.00  0.00     0.416 C 
ATOM     25  F   UNL     1      30.927   4.375  56.514  1.00  0.00    -0.166 F 
ATOM     26  F   UNL     1      31.650   2.452  56.832  1.00  0.00    -0.166 F 
ATOM     27  F   UNL     1      32.707   3.872  55.484  1.00  0.00    -0.166 F 
ENDBRANCH  16  24
ENDBRANCH  10  12
ENDBRANCH   1   8
BRANCH   6  28
ATOM     28  N   UNL     1      22.699   4.411  54.350  1.00  0.00    -0.324 N 
ATOM     29  H   UNL     1      22.239   3.598  54.783  1.00  0.00     0.170 HD
BRANCH  28  30
ATOM     30  C   UNL     1      22.675   5.654  54.986  1.00  0.00     0.227 A 
ATOM     31  N   UNL     1      21.717   6.572  54.983  1.00  0.00    -0.221 NA
ATOM     32  N   UNL     1      23.880   5.834  55.585  1.00  0.00    -0.213 NA
ATOM     33  C   UNL     1      21.970   7.714  55.650  1.00  0.00     0.117 A 
ATOM     34  C   UNL     1      24.098   6.998  56.208  1.00  0.00     0.077 A 
ATOM     35  C   UNL     1      23.147   7.957  56.248  1.00  0.00     0.049 A 
BRANCH  34  36
ATOM     36  C   UNL     1      25.418   7.132  56.877  1.00  0.00     0.019 A 
ATOM     37  C   UNL     1      25.580   7.907  58.036  1.00  0.00     0.013 A 
ATOM     38  C   UNL     1      26.556   6.490  56.349  1.00  0.00     0.121 A 
ATOM     39  C   UNL     1      26.843   8.016  58.604  1.00  0.00     0.021 A 
ATOM     40  N   UNL     1      27.777   6.598  56.888  1.00  0.00    -0.264 NA
ATOM     41  C   UNL     1      27.898   7.324  58.011  1.00  0.00     0.111 A 
ENDBRANCH  34  36
ENDBRANCH  28  30
ENDBRANCH   6  28
TORSDOF 7
ENDMDL
