MODEL 1
REMARK VINA RESULT:   -15.154      0.000      0.000
REMARK INTER + INTRA:         -18.419
REMARK INTER:                 -17.242
REMARK INTRA:                  -1.177
REMARK CONF_INDEPENDENT:        2.088
REMARK UNBOUND:                -1.177
REMARK SMILES Cc1cn(-c2cc(NC(=O)c3ccc(C)c(Nc4nccc(-c5cccnc5)n4)c3)cc(C(F)(F)F)c2)cn1
REMARK SMILES IDX 11 1 12 2 13 3 14 4 15 5 16 6 30 7 9 8 10 9 8 10 7 12 6 13
REMARK SMILES IDX 31 14 5 15 32 16 37 17 4 18 3 19 38 20 2 21 39 22 1 23 33 24
REMARK SMILES IDX 34 25 35 26 36 27 17 28 18 30 19 31 29 32 20 33 22 34 21 35
REMARK SMILES IDX 23 36 24 37 28 38 25 39 27 40 26 41
REMARK H PARENT 8 11 17 29
ROOT
ATOM      1  C   UNL     1      27.974   1.858  53.218  1.00  0.00     0.042 A 
ATOM      2  C   UNL     1      27.693   1.347  54.494  1.00  0.00     0.014 A 
ATOM      3  C   UNL     1      28.412   0.274  55.022  1.00  0.00     0.006 A 
ATOM      4  C   UNL     1      29.376  -0.382  54.274  1.00  0.00    -0.027 A 
ATOM      5  C   UNL     1      30.148  -1.557  54.859  1.00  0.00     0.046 C 
ATOM      6  C   UNL     1      29.589   0.055  52.967  1.00  0.00     0.045 A 
ATOM      7  C   UNL     1      28.874   1.150  52.465  1.00  0.00     0.040 A 
ENDROOT
BRANCH   1   8
ATOM      8  C   UNL     1      27.185   2.901  52.534  1.00  0.00     0.255 C 
ATOM      9  O   UNL     1      27.525   3.152  51.404  1.00  0.00    -0.269 OA
ATOM     10  N   UNL     1      26.043   3.269  53.136  1.00  0.00    -0.322 N 
ATOM     11  H   UNL     1      25.841   2.847  54.053  1.00  0.00     0.170 HD
BRANCH  10  12
ATOM     12  C   UNL     1      25.109   4.166  52.634  1.00  0.00     0.044 A 
ATOM     13  C   UNL     1      24.181   4.806  53.493  1.00  0.00     0.052 A 
ATOM     14  C   UNL     1      24.984   4.370  51.243  1.00  0.00     0.039 A 
ATOM     15  C   UNL     1      23.244   5.718  53.000  1.00  0.00     0.049 A 
ATOM     16  C   UNL     1      24.044   5.316  50.744  1.00  0.00     0.060 A 
ATOM     17  C   UNL     1      23.167   5.947  51.630  1.00  0.00     0.039 A 
BRANCH  15  18
ATOM     18  N   UNL     1      22.349   6.388  53.847  1.00  0.00    -0.306 N 
ATOM     19  C   UNL     1      22.043   6.125  55.181  1.00  0.00     0.116 A 
ATOM     20  C   UNL     1      21.520   7.383  53.511  1.00  0.00     0.204 A 
ATOM     21  C   UNL     1      21.063   6.972  55.564  1.00  0.00     0.056 A 
ATOM     22  N   UNL     1      20.772   7.772  54.514  1.00  0.00    -0.242 NA
ATOM     23  C   UNL     1      20.411   7.086  56.921  1.00  0.00     0.068 C 
ENDBRANCH  15  18
BRANCH  16  24
ATOM     24  C   UNL     1      23.974   5.556  49.271  1.00  0.00     0.416 C 
ATOM     25  F   UNL     1      24.727   6.580  48.824  1.00  0.00    -0.166 F 
ATOM     26  F   UNL     1      24.478   4.529  48.596  1.00  0.00    -0.166 F 
ATOM     27  F   UNL     1      22.730   5.880  48.862  1.00  0.00    -0.166 F 
ENDBRANCH  16  24
ENDBRANCH  10  12
ENDBRANCH   1   8
BRANCH   6  28
ATOM     28  N   UNL     1      30.665  -0.483  52.251  1.00  0.00    -0.324 N 
ATOM     29  H   UNL     1      30.525  -1.297  51.636  1.00  0.00     0.170 HD
BRANCH  28  30
ATOM     30  C   UNL     1      31.931   0.094  52.376  1.00  0.00     0.227 A 
ATOM     31  N   UNL     1      32.327   1.061  53.193  1.00  0.00    -0.221 NA
ATOM     32  N   UNL     1      32.731  -0.460  51.429  1.00  0.00    -0.213 NA
ATOM     33  C   UNL     1      33.606   1.466  53.077  1.00  0.00     0.117 A 
ATOM     34  C   UNL     1      33.985  -0.003  51.331  1.00  0.00     0.077 A 
ATOM     35  C   UNL     1      34.441   0.968  52.151  1.00  0.00     0.049 A 
BRANCH  34  36
ATOM     36  C   UNL     1      34.831  -0.665  50.303  1.00  0.00     0.019 A 
ATOM     37  C   UNL     1      36.118  -0.195  49.996  1.00  0.00     0.013 A 
ATOM     38  C   UNL     1      34.351  -1.784  49.594  1.00  0.00     0.121 A 
ATOM     39  C   UNL     1      36.853  -0.838  49.009  1.00  0.00     0.021 A 
ATOM     40  N   UNL     1      35.052  -2.403  48.636  1.00  0.00    -0.264 NA
ATOM     41  C   UNL     1      36.290  -1.948  48.380  1.00  0.00     0.111 A 
ENDBRANCH  34  36
ENDBRANCH  28  30
ENDBRANCH   6  28
TORSDOF 7
ENDMDL
MODEL 2
REMARK VINA RESULT:   -14.039      2.218      3.686
REMARK INTER + INTRA:         -17.344
REMARK INTER:                 -16.127
REMARK INTRA:                  -1.217
REMARK CONF_INDEPENDENT:        2.088
REMARK UNBOUND:                -1.217
REMARK SMILES Cc1cn(-c2cc(NC(=O)c3ccc(C)c(Nc4nccc(-c5cccnc5)n4)c3)cc(C(F)(F)F)c2)cn1
REMARK SMILES IDX 11 1 12 2 13 3 14 4 15 5 16 6 30 7 9 8 10 9 8 10 7 12 6 13
REMARK SMILES IDX 31 14 5 15 32 16 37 17 4 18 3 19 38 20 2 21 39 22 1 23 33 24
REMARK SMILES IDX 34 25 35 26 36 27 17 28 18 30 19 31 29 32 20 33 22 34 21 35
REMARK SMILES IDX 23 36 24 37 28 38 25 39 27 40 26 41
REMARK H PARENT 8 11 17 29
ROOT
ATOM      1  C   UNL     1      28.226   1.521  53.616  1.00  0.00     0.042 A 
ATOM      2  C   UNL     1      27.966   0.927  54.860  1.00  0.00     0.014 A 
ATOM      3  C   UNL     1      28.691  -0.180  55.304  1.00  0.00     0.006 A 
ATOM      4  C   UNL     1      29.641  -0.786  54.497  1.00  0.00    -0.027 A 
ATOM      5  C   UNL     1      30.420  -1.997  54.992  1.00  0.00     0.046 C 
ATOM      6  C   UNL     1      29.832  -0.264  53.219  1.00  0.00     0.045 A 
ATOM      7  C   UNL     1      29.112   0.862  52.802  1.00  0.00     0.040 A 
ENDROOT
BRANCH   1   8
ATOM      8  C   UNL     1      27.428   2.607  53.016  1.00  0.00     0.255 C 
ATOM      9  O   UNL     1      27.885   3.092  52.010  1.00  0.00    -0.269 OA
ATOM     10  N   UNL     1      26.185   2.763  53.496  1.00  0.00    -0.322 N 
ATOM     11  H   UNL     1      25.910   2.161  54.286  1.00  0.00     0.170 HD
BRANCH  10  12
ATOM     12  C   UNL     1      25.235   3.661  53.027  1.00  0.00     0.044 A 
ATOM     13  C   UNL     1      25.155   3.981  51.649  1.00  0.00     0.052 A 
ATOM     14  C   UNL     1      24.408   4.367  53.928  1.00  0.00     0.039 A 
ATOM     15  C   UNL     1      24.196   4.876  51.166  1.00  0.00     0.049 A 
ATOM     16  C   UNL     1      23.417   5.262  53.431  1.00  0.00     0.060 A 
ATOM     17  C   UNL     1      23.353   5.525  52.061  1.00  0.00     0.039 A 
BRANCH  15  18
ATOM     18  N   UNL     1      24.082   5.167  49.798  1.00  0.00    -0.306 N 
ATOM     19  C   UNL     1      23.476   6.262  49.184  1.00  0.00     0.116 A 
ATOM     20  C   UNL     1      24.460   4.388  48.779  1.00  0.00     0.204 A 
ATOM     21  C   UNL     1      23.531   6.079  47.847  1.00  0.00     0.056 A 
ATOM     22  N   UNL     1      24.179   4.917  47.613  1.00  0.00    -0.242 NA
ATOM     23  C   UNL     1      23.026   6.999  46.762  1.00  0.00     0.068 C 
ENDBRANCH  15  18
BRANCH  16  24
ATOM     24  C   UNL     1      22.514   5.950  54.404  1.00  0.00     0.416 C 
ATOM     25  F   UNL     1      21.977   5.150  55.346  1.00  0.00    -0.166 F 
ATOM     26  F   UNL     1      23.186   6.828  55.138  1.00  0.00    -0.166 F 
ATOM     27  F   UNL     1      21.436   6.496  53.804  1.00  0.00    -0.166 F 
ENDBRANCH  16  24
ENDBRANCH  10  12
ENDBRANCH   1   8
BRANCH   6  28
ATOM     28  N   UNL     1      30.895  -0.755  52.451  1.00  0.00    -0.324 N 
ATOM     29  H   UNL     1      30.765  -1.582  51.852  1.00  0.00     0.170 HD
BRANCH  28  30
ATOM     30  C   UNL     1      32.134  -0.113  52.503  1.00  0.00     0.227 A 
ATOM     31  N   UNL     1      32.528   0.873  53.298  1.00  0.00    -0.221 NA
ATOM     32  N   UNL     1      32.905  -0.624  51.508  1.00  0.00    -0.213 NA
ATOM     33  C   UNL     1      33.775   1.344  53.107  1.00  0.00     0.117 A 
ATOM     34  C   UNL     1      34.125  -0.102  51.336  1.00  0.00     0.077 A 
ATOM     35  C   UNL     1      34.578   0.891  52.132  1.00  0.00     0.049 A 
BRANCH  34  36
ATOM     36  C   UNL     1      34.941  -0.718  50.258  1.00  0.00     0.019 A 
ATOM     37  C   UNL     1      36.141  -0.136  49.820  1.00  0.00     0.013 A 
ATOM     38  C   UNL     1      34.519  -1.907  49.632  1.00  0.00     0.121 A 
ATOM     39  C   UNL     1      36.850  -0.743  48.790  1.00  0.00     0.021 A 
ATOM     40  N   UNL     1      35.193  -2.493  48.634  1.00  0.00    -0.264 NA
ATOM     41  C   UNL     1      36.350  -1.928  48.252  1.00  0.00     0.111 A 
ENDBRANCH  34  36
ENDBRANCH  28  30
ENDBRANCH   6  28
TORSDOF 7
ENDMDL
MODEL 3
REMARK VINA RESULT:   -13.172      1.150      1.787
REMARK INTER + INTRA:         -16.407
REMARK INTER:                 -15.261
REMARK INTRA:                  -1.146
REMARK CONF_INDEPENDENT:        2.088
REMARK UNBOUND:                -1.146
REMARK SMILES Cc1cn(-c2cc(NC(=O)c3ccc(C)c(Nc4nccc(-c5cccnc5)n4)c3)cc(C(F)(F)F)c2)cn1
REMARK SMILES IDX 11 1 12 2 13 3 14 4 15 5 16 6 30 7 9 8 10 9 8 10 7 12 6 13
REMARK SMILES IDX 31 14 5 15 32 16 37 17 4 18 3 19 38 20 2 21 39 22 1 23 33 24
REMARK SMILES IDX 34 25 35 26 36 27 17 28 18 30 19 31 29 32 20 33 22 34 21 35
REMARK SMILES IDX 23 36 24 37 28 38 25 39 27 40 26 41
REMARK H PARENT 8 11 17 29
ROOT
ATOM      1  C   UNL     1      28.426   1.602  53.060  1.00  0.00     0.042 A 
ATOM      2  C   UNL     1      27.977   0.763  54.091  1.00  0.00     0.014 A 
ATOM      3  C   UNL     1      28.786  -0.250  54.608  1.00  0.00     0.006 A 
ATOM      4  C   UNL     1      30.032  -0.522  54.066  1.00  0.00    -0.027 A 
ATOM      5  C   UNL     1      30.900  -1.635  54.635  1.00  0.00     0.046 C 
ATOM      6  C   UNL     1      30.441   0.241  52.973  1.00  0.00     0.045 A 
ATOM      7  C   UNL     1      29.625   1.270  52.486  1.00  0.00     0.040 A 
ENDROOT
BRANCH   1   8
ATOM      8  C   UNL     1      27.596   2.610  52.371  1.00  0.00     0.255 C 
ATOM      9  O   UNL     1      27.922   2.862  51.237  1.00  0.00    -0.269 OA
ATOM     10  N   UNL     1      26.445   2.941  52.975  1.00  0.00    -0.322 N 
ATOM     11  H   UNL     1      26.263   2.520  53.897  1.00  0.00     0.170 HD
BRANCH  10  12
ATOM     12  C   UNL     1      25.477   3.800  52.471  1.00  0.00     0.044 A 
ATOM     13  C   UNL     1      24.577   4.470  53.336  1.00  0.00     0.052 A 
ATOM     14  C   UNL     1      25.289   3.931  51.077  1.00  0.00     0.039 A 
ATOM     15  C   UNL     1      23.606   5.344  52.839  1.00  0.00     0.049 A 
ATOM     16  C   UNL     1      24.314   4.838  50.573  1.00  0.00     0.060 A 
ATOM     17  C   UNL     1      23.467   5.502  51.464  1.00  0.00     0.039 A 
BRANCH  15  18
ATOM     18  N   UNL     1      22.738   6.044  53.690  1.00  0.00    -0.306 N 
ATOM     19  C   UNL     1      22.381   5.756  55.006  1.00  0.00     0.116 A 
ATOM     20  C   UNL     1      21.988   7.106  53.372  1.00  0.00     0.204 A 
ATOM     21  C   UNL     1      21.452   6.656  55.397  1.00  0.00     0.056 A 
ATOM     22  N   UNL     1      21.244   7.511  54.372  1.00  0.00    -0.242 NA
ATOM     23  C   UNL     1      20.775   6.767  56.742  1.00  0.00     0.068 C 
ENDBRANCH  15  18
BRANCH  16  24
ATOM     24  C   UNL     1      24.178   5.002  49.094  1.00  0.00     0.416 C 
ATOM     25  F   UNL     1      22.910   5.084  48.645  1.00  0.00    -0.166 F 
ATOM     26  F   UNL     1      24.686   6.162  48.694  1.00  0.00    -0.166 F 
ATOM     27  F   UNL     1      24.685   3.955  48.413  1.00  0.00    -0.166 F 
ENDBRANCH  16  24
ENDBRANCH  10  12
ENDBRANCH   1   8
BRANCH   6  28
ATOM     28  N   UNL     1      31.757   0.096  52.514  1.00  0.00    -0.324 N 
ATOM     29  H   UNL     1      32.539   0.514  53.039  1.00  0.00     0.170 HD
BRANCH  28  30
ATOM     30  C   UNL     1      32.000  -0.620  51.340  1.00  0.00     0.227 A 
ATOM     31  N   UNL     1      31.140  -1.278  50.573  1.00  0.00    -0.221 NA
ATOM     32  N   UNL     1      33.340  -0.610  51.122  1.00  0.00    -0.213 NA
ATOM     33  C   UNL     1      31.650  -1.927  49.510  1.00  0.00     0.117 A 
ATOM     34  C   UNL     1      33.804  -1.295  50.070  1.00  0.00     0.077 A 
ATOM     35  C   UNL     1      32.966  -1.966  49.250  1.00  0.00     0.049 A 
BRANCH  34  36
ATOM     36  C   UNL     1      35.272  -1.224  49.854  1.00  0.00     0.019 A 
ATOM     37  C   UNL     1      35.936  -2.128  49.009  1.00  0.00     0.013 A 
ATOM     38  C   UNL     1      36.046  -0.248  50.512  1.00  0.00     0.121 A 
ATOM     39  C   UNL     1      37.314  -2.029  48.864  1.00  0.00     0.021 A 
ATOM     40  N   UNL     1      37.375  -0.153  50.383  1.00  0.00    -0.264 NA
ATOM     41  C   UNL     1      37.981  -1.013  49.548  1.00  0.00     0.111 A 
ENDBRANCH  34  36
ENDBRANCH  28  30
ENDBRANCH   6  28
TORSDOF 7
ENDMDL
MODEL 4
REMARK VINA RESULT:   -12.431      1.546      3.627
REMARK INTER + INTRA:         -16.089
REMARK INTER:                 -14.519
REMARK INTRA:                  -1.570
REMARK CONF_INDEPENDENT:        2.088
REMARK UNBOUND:                -1.570
REMARK SMILES Cc1cn(-c2cc(NC(=O)c3ccc(C)c(Nc4nccc(-c5cccnc5)n4)c3)cc(C(F)(F)F)c2)cn1
REMARK SMILES IDX 11 1 12 2 13 3 14 4 15 5 16 6 30 7 9 8 10 9 8 10 7 12 6 13
REMARK SMILES IDX 31 14 5 15 32 16 37 17 4 18 3 19 38 20 2 21 39 22 1 23 33 24
REMARK SMILES IDX 34 25 35 26 36 27 17 28 18 30 19 31 29 32 20 33 22 34 21 35
REMARK SMILES IDX 23 36 24 37 28 38 25 39 27 40 26 41
REMARK H PARENT 8 11 17 29
ROOT
ATOM      1  C   UNL     1      27.762   1.626  53.119  1.00  0.00     0.042 A 
ATOM      2  C   UNL     1      27.386   0.970  54.301  1.00  0.00     0.014 A 
ATOM      3  C   UNL     1      28.064  -0.164  54.750  1.00  0.00     0.006 A 
ATOM      4  C   UNL     1      29.082  -0.736  54.004  1.00  0.00    -0.027 A 
ATOM      5  C   UNL     1      29.807  -1.977  54.503  1.00  0.00     0.046 C 
ATOM      6  C   UNL     1      29.391  -0.149  52.778  1.00  0.00     0.045 A 
ATOM      7  C   UNL     1      28.716   1.003  52.356  1.00  0.00     0.040 A 
ENDROOT
BRANCH   1   8
ATOM      8  C   UNL     1      27.026   2.749  52.506  1.00  0.00     0.255 C 
ATOM      9  O   UNL     1      27.398   3.074  51.405  1.00  0.00    -0.269 OA
ATOM     10  N   UNL     1      25.886   3.111  53.115  1.00  0.00    -0.322 N 
ATOM     11  H   UNL     1      25.650   2.627  53.992  1.00  0.00     0.170 HD
BRANCH  10  12
ATOM     12  C   UNL     1      24.996   4.081  52.670  1.00  0.00     0.044 A 
ATOM     13  C   UNL     1      24.107   4.719  53.569  1.00  0.00     0.052 A 
ATOM     14  C   UNL     1      24.874   4.365  51.292  1.00  0.00     0.039 A 
ATOM     15  C   UNL     1      23.215   5.703  53.133  1.00  0.00     0.049 A 
ATOM     16  C   UNL     1      23.980   5.383  50.852  1.00  0.00     0.060 A 
ATOM     17  C   UNL     1      23.143   6.009  51.778  1.00  0.00     0.039 A 
BRANCH  15  18
ATOM     18  N   UNL     1      22.360   6.371  54.022  1.00  0.00    -0.306 N 
ATOM     19  C   UNL     1      22.214   6.192  55.397  1.00  0.00     0.116 A 
ATOM     20  C   UNL     1      21.423   7.273  53.708  1.00  0.00     0.204 A 
ATOM     21  C   UNL     1      21.212   6.993  55.822  1.00  0.00     0.056 A 
ATOM     22  N   UNL     1      20.753   7.685  54.756  1.00  0.00    -0.242 NA
ATOM     23  C   UNL     1      20.695   7.166  57.230  1.00  0.00     0.068 C 
ENDBRANCH  15  18
BRANCH  16  24
ATOM     24  C   UNL     1      23.915   5.705  49.395  1.00  0.00     0.416 C 
ATOM     25  F   UNL     1      24.397   4.748  48.578  1.00  0.00    -0.166 F 
ATOM     26  F   UNL     1      22.656   5.808  48.985  1.00  0.00    -0.166 F 
ATOM     27  F   UNL     1      24.651   6.789  49.075  1.00  0.00    -0.166 F 
ENDBRANCH  16  24
ENDBRANCH  10  12
ENDBRANCH   1   8
BRANCH   6  28
ATOM     28  N   UNL     1      30.518  -0.609  52.085  1.00  0.00    -0.324 N 
ATOM     29  H   UNL     1      30.466  -1.468  51.519  1.00  0.00     0.170 HD
BRANCH  28  30
ATOM     30  C   UNL     1      31.714   0.108  52.166  1.00  0.00     0.227 A 
ATOM     31  N   UNL     1      32.818  -0.029  51.443  1.00  0.00    -0.221 NA
ATOM     32  N   UNL     1      31.607   0.970  53.210  1.00  0.00    -0.213 NA
ATOM     33  C   UNL     1      33.854   0.770  51.761  1.00  0.00     0.117 A 
ATOM     34  C   UNL     1      32.673   1.721  53.508  1.00  0.00     0.077 A 
ATOM     35  C   UNL     1      33.814   1.631  52.790  1.00  0.00     0.049 A 
BRANCH  34  36
ATOM     36  C   UNL     1      32.494   2.673  54.636  1.00  0.00     0.019 A 
ATOM     37  C   UNL     1      33.351   3.770  54.815  1.00  0.00     0.013 A 
ATOM     38  C   UNL     1      31.457   2.486  55.571  1.00  0.00     0.121 A 
ATOM     39  C   UNL     1      33.150   4.612  55.901  1.00  0.00     0.021 A 
ATOM     40  N   UNL     1      31.264   3.290  56.624  1.00  0.00    -0.264 NA
ATOM     41  C   UNL     1      32.082   4.347  56.757  1.00  0.00     0.111 A 
ENDBRANCH  34  36
ENDBRANCH  28  30
ENDBRANCH   6  28
TORSDOF 7
ENDMDL
MODEL 5
REMARK VINA RESULT:   -11.551      4.082     11.191
REMARK INTER + INTRA:         -14.804
REMARK INTER:                 -13.639
REMARK INTRA:                  -1.165
REMARK CONF_INDEPENDENT:        2.088
REMARK UNBOUND:                -1.165
REMARK SMILES Cc1cn(-c2cc(NC(=O)c3ccc(C)c(Nc4nccc(-c5cccnc5)n4)c3)cc(C(F)(F)F)c2)cn1
REMARK SMILES IDX 11 1 12 2 13 3 14 4 15 5 16 6 30 7 9 8 10 9 8 10 7 12 6 13
REMARK SMILES IDX 31 14 5 15 32 16 37 17 4 18 3 19 38 20 2 21 39 22 1 23 33 24
REMARK SMILES IDX 34 25 35 26 36 27 17 28 18 30 19 31 29 32 20 33 22 34 21 35
REMARK SMILES IDX 23 36 24 37 28 38 25 39 27 40 26 41
REMARK H PARENT 8 11 17 29
ROOT
ATOM      1  C   UNL     1      25.866   3.823  51.947  1.00  0.00     0.042 A 
ATOM      2  C   UNL     1      25.281   4.329  50.777  1.00  0.00     0.014 A 
ATOM      3  C   UNL     1      24.150   5.146  50.824  1.00  0.00     0.006 A 
ATOM      4  C   UNL     1      23.512   5.421  52.022  1.00  0.00    -0.027 A 
ATOM      5  C   UNL     1      22.275   6.307  52.057  1.00  0.00     0.046 C 
ATOM      6  C   UNL     1      24.028   4.836  53.178  1.00  0.00     0.045 A 
ATOM      7  C   UNL     1      25.178   4.040  53.113  1.00  0.00     0.040 A 
ENDROOT
BRANCH   1   8
ATOM      8  C   UNL     1      26.980   2.855  51.983  1.00  0.00     0.255 C 
ATOM      9  O   UNL     1      27.691   2.847  51.008  1.00  0.00    -0.269 OA
ATOM     10  N   UNL     1      27.228   2.283  53.171  1.00  0.00    -0.322 N 
ATOM     11  H   UNL     1      26.586   2.510  53.943  1.00  0.00     0.170 HD
BRANCH  10  12
ATOM     12  C   UNL     1      28.272   1.411  53.454  1.00  0.00     0.044 A 
ATOM     13  C   UNL     1      29.576   1.652  52.956  1.00  0.00     0.052 A 
ATOM     14  C   UNL     1      28.031   0.202  54.143  1.00  0.00     0.039 A 
ATOM     15  C   UNL     1      30.635   0.786  53.244  1.00  0.00     0.049 A 
ATOM     16  C   UNL     1      29.115  -0.668  54.454  1.00  0.00     0.060 A 
ATOM     17  C   UNL     1      30.391  -0.376  53.969  1.00  0.00     0.039 A 
BRANCH  15  18
ATOM     18  N   UNL     1      31.939   1.038  52.791  1.00  0.00    -0.306 N 
ATOM     19  C   UNL     1      32.561   0.597  51.624  1.00  0.00     0.116 A 
ATOM     20  C   UNL     1      32.902   1.694  53.448  1.00  0.00     0.204 A 
ATOM     21  C   UNL     1      33.846   1.014  51.648  1.00  0.00     0.056 A 
ATOM     22  N   UNL     1      34.030   1.727  52.781  1.00  0.00    -0.242 NA
ATOM     23  C   UNL     1      34.911   0.801  50.600  1.00  0.00     0.068 C 
ENDBRANCH  15  18
BRANCH  16  24
ATOM     24  C   UNL     1      28.840  -1.911  55.236  1.00  0.00     0.416 C 
ATOM     25  F   UNL     1      28.011  -2.789  54.639  1.00  0.00    -0.166 F 
ATOM     26  F   UNL     1      29.944  -2.634  55.386  1.00  0.00    -0.166 F 
ATOM     27  F   UNL     1      28.230  -1.653  56.412  1.00  0.00    -0.166 F 
ENDBRANCH  16  24
ENDBRANCH  10  12
ENDBRANCH   1   8
BRANCH   6  28
ATOM     28  N   UNL     1      23.501   5.228  54.415  1.00  0.00    -0.324 N 
ATOM     29  H   UNL     1      22.832   4.622  54.910  1.00  0.00     0.170 HD
BRANCH  28  30
ATOM     30  C   UNL     1      23.890   6.448  54.973  1.00  0.00     0.227 A 
ATOM     31  N   UNL     1      23.818   7.664  54.447  1.00  0.00    -0.221 NA
ATOM     32  N   UNL     1      24.461   6.187  56.177  1.00  0.00    -0.213 NA
ATOM     33  C   UNL     1      24.310   8.674  55.189  1.00  0.00     0.117 A 
ATOM     34  C   UNL     1      24.965   7.219  56.863  1.00  0.00     0.077 A 
ATOM     35  C   UNL     1      24.899   8.478  56.379  1.00  0.00     0.049 A 
BRANCH  34  36
ATOM     36  C   UNL     1      25.546   6.886  58.190  1.00  0.00     0.019 A 
ATOM     37  C   UNL     1      24.733   6.605  59.299  1.00  0.00     0.013 A 
ATOM     38  C   UNL     1      26.943   6.859  58.372  1.00  0.00     0.121 A 
ATOM     39  C   UNL     1      25.332   6.325  60.521  1.00  0.00     0.021 A 
ATOM     40  N   UNL     1      27.525   6.597  59.549  1.00  0.00    -0.264 NA
ATOM     41  C   UNL     1      26.725   6.307  60.587  1.00  0.00     0.111 A 
ENDBRANCH  34  36
ENDBRANCH  28  30
ENDBRANCH   6  28
TORSDOF 7
ENDMDL
MODEL 6
REMARK VINA RESULT:   -11.520      3.745     11.740
REMARK INTER + INTRA:         -14.765
REMARK INTER:                 -13.608
REMARK INTRA:                  -1.157
REMARK CONF_INDEPENDENT:        2.088
REMARK UNBOUND:                -1.157
REMARK SMILES Cc1cn(-c2cc(NC(=O)c3ccc(C)c(Nc4nccc(-c5cccnc5)n4)c3)cc(C(F)(F)F)c2)cn1
REMARK SMILES IDX 11 1 12 2 13 3 14 4 15 5 16 6 30 7 9 8 10 9 8 10 7 12 6 13
REMARK SMILES IDX 31 14 5 15 32 16 37 17 4 18 3 19 38 20 2 21 39 22 1 23 33 24
REMARK SMILES IDX 34 25 35 26 36 27 17 28 18 30 19 31 29 32 20 33 22 34 21 35
REMARK SMILES IDX 23 36 24 37 28 38 25 39 27 40 26 41
REMARK H PARENT 8 11 17 29
ROOT
ATOM      1  C   UNL     1      25.918   3.794  51.862  1.00  0.00     0.042 A 
ATOM      2  C   UNL     1      25.289   4.236  50.688  1.00  0.00     0.014 A 
ATOM      3  C   UNL     1      24.173   5.072  50.732  1.00  0.00     0.006 A 
ATOM      4  C   UNL     1      23.590   5.431  51.937  1.00  0.00    -0.027 A 
ATOM      5  C   UNL     1      22.368   6.337  51.970  1.00  0.00     0.046 C 
ATOM      6  C   UNL     1      24.148   4.910  53.104  1.00  0.00     0.045 A 
ATOM      7  C   UNL     1      25.284   4.093  53.040  1.00  0.00     0.040 A 
ENDROOT
BRANCH   1   8
ATOM      8  C   UNL     1      27.019   2.812  51.911  1.00  0.00     0.255 C 
ATOM      9  O   UNL     1      27.702   2.750  50.918  1.00  0.00    -0.269 OA
ATOM     10  N   UNL     1      27.293   2.291  53.116  1.00  0.00    -0.322 N 
ATOM     11  H   UNL     1      26.677   2.562  53.894  1.00  0.00     0.170 HD
BRANCH  10  12
ATOM     12  C   UNL     1      28.333   1.417  53.409  1.00  0.00     0.044 A 
ATOM     13  C   UNL     1      29.639   1.648  52.910  1.00  0.00     0.052 A 
ATOM     14  C   UNL     1      28.086   0.216  54.110  1.00  0.00     0.039 A 
ATOM     15  C   UNL     1      30.693   0.780  53.208  1.00  0.00     0.049 A 
ATOM     16  C   UNL     1      29.165  -0.655  54.431  1.00  0.00     0.060 A 
ATOM     17  C   UNL     1      30.444  -0.374  53.945  1.00  0.00     0.039 A 
BRANCH  15  18
ATOM     18  N   UNL     1      31.999   1.022  52.754  1.00  0.00    -0.306 N 
ATOM     19  C   UNL     1      32.632   0.537  51.612  1.00  0.00     0.116 A 
ATOM     20  C   UNL     1      32.953   1.711  53.391  1.00  0.00     0.204 A 
ATOM     21  C   UNL     1      33.914   0.964  51.627  1.00  0.00     0.056 A 
ATOM     22  N   UNL     1      34.086   1.724  52.731  1.00  0.00    -0.242 NA
ATOM     23  C   UNL     1      34.988   0.714  50.596  1.00  0.00     0.068 C 
ENDBRANCH  15  18
BRANCH  16  24
ATOM     24  C   UNL     1      28.885  -1.889  55.226  1.00  0.00     0.416 C 
ATOM     25  F   UNL     1      28.052  -2.769  54.636  1.00  0.00    -0.166 F 
ATOM     26  F   UNL     1      29.985  -2.615  55.384  1.00  0.00    -0.166 F 
ATOM     27  F   UNL     1      28.274  -1.616  56.397  1.00  0.00    -0.166 F 
ENDBRANCH  16  24
ENDBRANCH  10  12
ENDBRANCH   1   8
BRANCH   6  28
ATOM     28  N   UNL     1      23.680   5.386  54.336  1.00  0.00    -0.324 N 
ATOM     29  H   UNL     1      22.714   5.191  54.635  1.00  0.00     0.170 HD
BRANCH  28  30
ATOM     30  C   UNL     1      24.535   6.126  55.156  1.00  0.00     0.227 A 
ATOM     31  N   UNL     1      25.835   6.352  55.014  1.00  0.00    -0.221 NA
ATOM     32  N   UNL     1      23.815   6.545  56.228  1.00  0.00    -0.213 NA
ATOM     33  C   UNL     1      26.433   7.070  55.983  1.00  0.00     0.117 A 
ATOM     34  C   UNL     1      24.461   7.228  57.181  1.00  0.00     0.077 A 
ATOM     35  C   UNL     1      25.779   7.499  57.074  1.00  0.00     0.049 A 
BRANCH  34  36
ATOM     36  C   UNL     1      23.622   7.694  58.316  1.00  0.00     0.019 A 
ATOM     37  C   UNL     1      24.108   8.615  59.259  1.00  0.00     0.013 A 
ATOM     38  C   UNL     1      22.311   7.208  58.485  1.00  0.00     0.121 A 
ATOM     39  C   UNL     1      23.288   8.995  60.314  1.00  0.00     0.021 A 
ATOM     40  N   UNL     1      21.519   7.565  59.504  1.00  0.00    -0.264 NA
ATOM     41  C   UNL     1      22.000   8.466  60.377  1.00  0.00     0.111 A 
ENDBRANCH  34  36
ENDBRANCH  28  30
ENDBRANCH   6  28
TORSDOF 7
ENDMDL
MODEL 7
REMARK VINA RESULT:   -11.519      2.061      3.046
REMARK INTER + INTRA:         -14.898
REMARK INTER:                 -13.607
REMARK INTRA:                  -1.291
REMARK CONF_INDEPENDENT:        2.088
REMARK UNBOUND:                -1.291
REMARK SMILES Cc1cn(-c2cc(NC(=O)c3ccc(C)c(Nc4nccc(-c5cccnc5)n4)c3)cc(C(F)(F)F)c2)cn1
REMARK SMILES IDX 11 1 12 2 13 3 14 4 15 5 16 6 30 7 9 8 10 9 8 10 7 12 6 13
REMARK SMILES IDX 31 14 5 15 32 16 37 17 4 18 3 19 38 20 2 21 39 22 1 23 33 24
REMARK SMILES IDX 34 25 35 26 36 27 17 28 18 30 19 31 29 32 20 33 22 34 21 35
REMARK SMILES IDX 23 36 24 37 28 38 25 39 27 40 26 41
REMARK H PARENT 8 11 17 29
ROOT
ATOM      1  C   UNL     1      26.993   2.428  52.377  1.00  0.00     0.042 A 
ATOM      2  C   UNL     1      27.149   1.059  52.113  1.00  0.00     0.014 A 
ATOM      3  C   UNL     1      27.918   0.241  52.942  1.00  0.00     0.006 A 
ATOM      4  C   UNL     1      28.626   0.766  54.011  1.00  0.00    -0.027 A 
ATOM      5  C   UNL     1      29.468  -0.137  54.902  1.00  0.00     0.046 C 
ATOM      6  C   UNL     1      28.559   2.143  54.218  1.00  0.00     0.045 A 
ATOM      7  C   UNL     1      27.761   2.942  53.390  1.00  0.00     0.040 A 
ENDROOT
BRANCH   1   8
ATOM      8  C   UNL     1      26.306   3.386  51.489  1.00  0.00     0.255 C 
ATOM      9  O   UNL     1      26.492   3.222  50.307  1.00  0.00    -0.269 OA
ATOM     10  N   UNL     1      25.369   4.156  52.061  1.00  0.00    -0.322 N 
ATOM     11  H   UNL     1      25.250   4.068  53.080  1.00  0.00     0.170 HD
BRANCH  10  12
ATOM     12  C   UNL     1      24.546   5.063  51.405  1.00  0.00     0.044 A 
ATOM     13  C   UNL     1      23.835   6.053  52.126  1.00  0.00     0.052 A 
ATOM     14  C   UNL     1      24.305   4.941  50.019  1.00  0.00     0.039 A 
ATOM     15  C   UNL     1      23.012   6.976  51.474  1.00  0.00     0.049 A 
ATOM     16  C   UNL     1      23.484   5.895  49.353  1.00  0.00     0.060 A 
ATOM     17  C   UNL     1      22.825   6.875  50.099  1.00  0.00     0.039 A 
BRANCH  15  18
ATOM     18  N   UNL     1      22.336   7.987  52.174  1.00  0.00    -0.306 N 
ATOM     19  C   UNL     1      21.510   7.876  53.291  1.00  0.00     0.116 A 
ATOM     20  C   UNL     1      22.275   9.283  51.848  1.00  0.00     0.204 A 
ATOM     21  C   UNL     1      21.011   9.100  53.569  1.00  0.00     0.056 A 
ATOM     22  N   UNL     1      21.527   9.973  52.675  1.00  0.00    -0.242 NA
ATOM     23  C   UNL     1      20.084   9.492  54.695  1.00  0.00     0.068 C 
ENDBRANCH  15  18
BRANCH  16  24
ATOM     24  C   UNL     1      23.295   5.778  47.875  1.00  0.00     0.416 C 
ATOM     25  F   UNL     1      23.025   6.937  47.242  1.00  0.00    -0.166 F 
ATOM     26  F   UNL     1      24.418   5.395  47.279  1.00  0.00    -0.166 F 
ATOM     27  F   UNL     1      22.246   4.993  47.553  1.00  0.00    -0.166 F 
ENDBRANCH  16  24
ENDBRANCH  10  12
ENDBRANCH   1   8
BRANCH   6  28
ATOM     28  N   UNL     1      29.131   2.671  55.382  1.00  0.00    -0.324 N 
ATOM     29  H   UNL     1      28.548   2.847  56.213  1.00  0.00     0.170 HD
BRANCH  28  30
ATOM     30  C   UNL     1      30.497   2.957  55.408  1.00  0.00     0.227 A 
ATOM     31  N   UNL     1      31.143   3.875  56.115  1.00  0.00    -0.221 NA
ATOM     32  N   UNL     1      31.102   2.160  54.489  1.00  0.00    -0.213 NA
ATOM     33  C   UNL     1      32.471   3.970  55.916  1.00  0.00     0.117 A 
ATOM     34  C   UNL     1      32.418   2.313  54.303  1.00  0.00     0.077 A 
ATOM     35  C   UNL     1      33.122   3.222  55.011  1.00  0.00     0.049 A 
BRANCH  34  36
ATOM     36  C   UNL     1      33.038   1.395  53.312  1.00  0.00     0.019 A 
ATOM     37  C   UNL     1      32.279   0.782  52.302  1.00  0.00     0.013 A 
ATOM     38  C   UNL     1      34.414   1.101  53.373  1.00  0.00     0.121 A 
ATOM     39  C   UNL     1      32.908  -0.087  51.419  1.00  0.00     0.021 A 
ATOM     40  N   UNL     1      35.024   0.258  52.530  1.00  0.00    -0.264 NA
ATOM     41  C   UNL     1      34.280  -0.294  51.558  1.00  0.00     0.111 A 
ENDBRANCH  34  36
ENDBRANCH  28  30
ENDBRANCH   6  28
TORSDOF 7
ENDMDL
MODEL 8
REMARK VINA RESULT:   -11.471      1.469      2.039
REMARK INTER + INTRA:         -14.986
REMARK INTER:                 -13.559
REMARK INTRA:                  -1.427
REMARK CONF_INDEPENDENT:        2.088
REMARK UNBOUND:                -1.427
REMARK SMILES Cc1cn(-c2cc(NC(=O)c3ccc(C)c(Nc4nccc(-c5cccnc5)n4)c3)cc(C(F)(F)F)c2)cn1
REMARK SMILES IDX 11 1 12 2 13 3 14 4 15 5 16 6 30 7 9 8 10 9 8 10 7 12 6 13
REMARK SMILES IDX 31 14 5 15 32 16 37 17 4 18 3 19 38 20 2 21 39 22 1 23 33 24
REMARK SMILES IDX 34 25 35 26 36 27 17 28 18 30 19 31 29 32 20 33 22 34 21 35
REMARK SMILES IDX 23 36 24 37 28 38 25 39 27 40 26 41
REMARK H PARENT 8 11 17 29
ROOT
ATOM      1  C   UNL     1      27.704   1.749  53.385  1.00  0.00     0.042 A 
ATOM      2  C   UNL     1      27.142   0.481  53.595  1.00  0.00     0.014 A 
ATOM      3  C   UNL     1      27.845  -0.525  54.260  1.00  0.00     0.006 A 
ATOM      4  C   UNL     1      29.156  -0.337  54.667  1.00  0.00    -0.027 A 
ATOM      5  C   UNL     1      29.913  -1.445  55.385  1.00  0.00     0.046 C 
ATOM      6  C   UNL     1      29.756   0.886  54.369  1.00  0.00     0.045 A 
ATOM      7  C   UNL     1      29.025   1.891  53.722  1.00  0.00     0.040 A 
ENDROOT
BRANCH   1   8
ATOM      8  C   UNL     1      27.086   2.824  52.584  1.00  0.00     0.255 C 
ATOM      9  O   UNL     1      27.615   3.050  51.524  1.00  0.00    -0.269 OA
ATOM     10  N   UNL     1      25.881   3.249  52.994  1.00  0.00    -0.322 N 
ATOM     11  H   UNL     1      25.514   2.843  53.867  1.00  0.00     0.170 HD
BRANCH  10  12
ATOM     12  C   UNL     1      25.084   4.186  52.350  1.00  0.00     0.044 A 
ATOM     13  C   UNL     1      24.404   5.190  53.084  1.00  0.00     0.052 A 
ATOM     14  C   UNL     1      24.836   4.086  50.964  1.00  0.00     0.039 A 
ATOM     15  C   UNL     1      23.608   6.143  52.443  1.00  0.00     0.049 A 
ATOM     16  C   UNL     1      24.042   5.071  50.310  1.00  0.00     0.060 A 
ATOM     17  C   UNL     1      23.414   6.063  51.068  1.00  0.00     0.039 A 
BRANCH  15  18
ATOM     18  N   UNL     1      22.965   7.166  53.156  1.00  0.00    -0.306 N 
ATOM     19  C   UNL     1      22.680   8.470  52.753  1.00  0.00     0.116 A 
ATOM     20  C   UNL     1      22.565   7.125  54.433  1.00  0.00     0.204 A 
ATOM     21  C   UNL     1      22.129   9.125  53.798  1.00  0.00     0.056 A 
ATOM     22  N   UNL     1      22.036   8.256  54.829  1.00  0.00    -0.242 NA
ATOM     23  C   UNL     1      21.636  10.551  53.845  1.00  0.00     0.068 C 
ENDBRANCH  15  18
BRANCH  16  24
ATOM     24  C   UNL     1      23.845   4.975  48.832  1.00  0.00     0.416 C 
ATOM     25  F   UNL     1      23.005   4.001  48.431  1.00  0.00    -0.166 F 
ATOM     26  F   UNL     1      23.251   6.064  48.358  1.00  0.00    -0.166 F 
ATOM     27  F   UNL     1      24.991   4.689  48.180  1.00  0.00    -0.166 F 
ENDBRANCH  16  24
ENDBRANCH  10  12
ENDBRANCH   1   8
BRANCH   6  28
ATOM     28  N   UNL     1      31.019   1.158  54.909  1.00  0.00    -0.324 N 
ATOM     29  H   UNL     1      31.155   1.173  55.930  1.00  0.00     0.170 HD
BRANCH  28  30
ATOM     30  C   UNL     1      32.093   1.409  54.053  1.00  0.00     0.227 A 
ATOM     31  N   UNL     1      32.983   2.392  54.100  1.00  0.00    -0.221 NA
ATOM     32  N   UNL     1      32.049   0.488  53.057  1.00  0.00    -0.213 NA
ATOM     33  C   UNL     1      33.900   2.427  53.114  1.00  0.00     0.117 A 
ATOM     34  C   UNL     1      32.961   0.582  52.082  1.00  0.00     0.077 A 
ATOM     35  C   UNL     1      33.899   1.554  52.095  1.00  0.00     0.049 A 
BRANCH  34  36
ATOM     36  C   UNL     1      32.893  -0.470  51.035  1.00  0.00     0.019 A 
ATOM     37  C   UNL     1      34.026  -0.848  50.296  1.00  0.00     0.013 A 
ATOM     38  C   UNL     1      31.673  -1.112  50.743  1.00  0.00     0.121 A 
ATOM     39  C   UNL     1      33.897  -1.819  49.312  1.00  0.00     0.021 A 
ATOM     40  N   UNL     1      31.541  -2.043  49.791  1.00  0.00    -0.264 NA
ATOM     41  C   UNL     1      32.646  -2.403  49.117  1.00  0.00     0.111 A 
ENDBRANCH  34  36
ENDBRANCH  28  30
ENDBRANCH   6  28
TORSDOF 7
ENDMDL
MODEL 9
REMARK VINA RESULT:   -11.094      4.526      7.952
REMARK INTER + INTRA:         -14.213
REMARK INTER:                 -13.182
REMARK INTRA:                  -1.031
REMARK CONF_INDEPENDENT:        2.088
REMARK UNBOUND:                -1.031
REMARK SMILES Cc1cn(-c2cc(NC(=O)c3ccc(C)c(Nc4nccc(-c5cccnc5)n4)c3)cc(C(F)(F)F)c2)cn1
REMARK SMILES IDX 11 1 12 2 13 3 14 4 15 5 16 6 30 7 9 8 10 9 8 10 7 12 6 13
REMARK SMILES IDX 31 14 5 15 32 16 37 17 4 18 3 19 38 20 2 21 39 22 1 23 33 24
REMARK SMILES IDX 34 25 35 26 36 27 17 28 18 30 19 31 29 32 20 33 22 34 21 35
REMARK SMILES IDX 23 36 24 37 28 38 25 39 27 40 26 41
REMARK H PARENT 8 11 17 29
ROOT
ATOM      1  C   UNL     1      33.853  -0.549  50.767  1.00  0.00     0.042 A 
ATOM      2  C   UNL     1      33.852  -1.781  50.096  1.00  0.00     0.014 A 
ATOM      3  C   UNL     1      34.863  -2.120  49.196  1.00  0.00     0.006 A 
ATOM      4  C   UNL     1      35.864  -1.219  48.867  1.00  0.00    -0.027 A 
ATOM      5  C   UNL     1      36.956  -1.599  47.878  1.00  0.00     0.046 C 
ATOM      6  C   UNL     1      35.812   0.045  49.452  1.00  0.00     0.045 A 
ATOM      7  C   UNL     1      34.803   0.357  50.372  1.00  0.00     0.040 A 
ENDROOT
BRANCH   1   8
ATOM      8  C   UNL     1      32.763  -0.059  51.633  1.00  0.00     0.255 C 
ATOM      9  O   UNL     1      32.910   1.055  52.072  1.00  0.00    -0.269 OA
ATOM     10  N   UNL     1      31.635  -0.786  51.633  1.00  0.00    -0.322 N 
ATOM     11  H   UNL     1      31.641  -1.659  51.086  1.00  0.00     0.170 HD
BRANCH  10  12
ATOM     12  C   UNL     1      30.461  -0.471  52.304  1.00  0.00     0.044 A 
ATOM     13  C   UNL     1      29.679   0.645  51.916  1.00  0.00     0.052 A 
ATOM     14  C   UNL     1      30.083  -1.182  53.464  1.00  0.00     0.039 A 
ATOM     15  C   UNL     1      28.490   0.965  52.579  1.00  0.00     0.049 A 
ATOM     16  C   UNL     1      28.861  -0.868  54.125  1.00  0.00     0.060 A 
ATOM     17  C   UNL     1      28.104   0.222  53.689  1.00  0.00     0.039 A 
BRANCH  15  18
ATOM     18  N   UNL     1      27.687   2.042  52.175  1.00  0.00    -0.306 N 
ATOM     19  C   UNL     1      26.676   2.693  52.880  1.00  0.00     0.116 A 
ATOM     20  C   UNL     1      27.667   2.619  50.967  1.00  0.00     0.204 A 
ATOM     21  C   UNL     1      26.119   3.614  52.064  1.00  0.00     0.056 A 
ATOM     22  N   UNL     1      26.775   3.575  50.883  1.00  0.00    -0.242 NA
ATOM     23  C   UNL     1      25.001   4.579  52.379  1.00  0.00     0.068 C 
ENDBRANCH  15  18
BRANCH  16  24
ATOM     24  C   UNL     1      28.456  -1.677  55.314  1.00  0.00     0.416 C 
ATOM     25  F   UNL     1      27.519  -2.616  55.073  1.00  0.00    -0.166 F 
ATOM     26  F   UNL     1      29.469  -2.408  55.762  1.00  0.00    -0.166 F 
ATOM     27  F   UNL     1      27.899  -0.920  56.283  1.00  0.00    -0.166 F 
ENDBRANCH  16  24
ENDBRANCH  10  12
ENDBRANCH   1   8
BRANCH   6  28
ATOM     28  N   UNL     1      36.896   0.912  49.263  1.00  0.00    -0.324 N 
ATOM     29  H   UNL     1      36.737   1.885  48.965  1.00  0.00     0.170 HD
BRANCH  28  30
ATOM     30  C   UNL     1      38.194   0.446  49.480  1.00  0.00     0.227 A 
ATOM     31  N   UNL     1      38.628  -0.415  50.392  1.00  0.00    -0.221 NA
ATOM     32  N   UNL     1      39.016   1.099  48.619  1.00  0.00    -0.213 NA
ATOM     33  C   UNL     1      39.952  -0.660  50.413  1.00  0.00     0.117 A 
ATOM     34  C   UNL     1      40.328   0.847  48.698  1.00  0.00     0.077 A 
ATOM     35  C   UNL     1      40.816  -0.035  49.598  1.00  0.00     0.049 A 
BRANCH  34  36
ATOM     36  C   UNL     1      41.180   1.560  47.712  1.00  0.00     0.019 A 
ATOM     37  C   UNL     1      40.687   1.941  46.454  1.00  0.00     0.013 A 
ATOM     38  C   UNL     1      42.523   1.860  48.012  1.00  0.00     0.121 A 
ATOM     39  C   UNL     1      41.537   2.583  45.562  1.00  0.00     0.021 A 
ATOM     40  N   UNL     1      43.350   2.472  47.153  1.00  0.00    -0.264 NA
ATOM     41  C   UNL     1      42.845   2.848  45.967  1.00  0.00     0.111 A 
ENDBRANCH  34  36
ENDBRANCH  28  30
ENDBRANCH   6  28
TORSDOF 7
ENDMDL
MODEL 10
REMARK VINA RESULT:   -11.060      2.970      4.083
REMARK INTER + INTRA:         -14.114
REMARK INTER:                 -13.148
REMARK INTRA:                  -0.966
REMARK CONF_INDEPENDENT:        2.088
REMARK UNBOUND:                -0.966
REMARK SMILES Cc1cn(-c2cc(NC(=O)c3ccc(C)c(Nc4nccc(-c5cccnc5)n4)c3)cc(C(F)(F)F)c2)cn1
REMARK SMILES IDX 11 1 12 2 13 3 14 4 15 5 16 6 30 7 9 8 10 9 8 10 7 12 6 13
REMARK SMILES IDX 31 14 5 15 32 16 37 17 4 18 3 19 38 20 2 21 39 22 1 23 33 24
REMARK SMILES IDX 34 25 35 26 36 27 17 28 18 30 19 31 29 32 20 33 22 34 21 35
REMARK SMILES IDX 23 36 24 37 28 38 25 39 27 40 26 41
REMARK H PARENT 8 11 17 29
ROOT
ATOM      1  C   UNL     1      28.091   1.878  52.633  1.00  0.00     0.042 A 
ATOM      2  C   UNL     1      28.123   2.581  53.847  1.00  0.00     0.014 A 
ATOM      3  C   UNL     1      29.148   2.386  54.774  1.00  0.00     0.006 A 
ATOM      4  C   UNL     1      30.130   1.430  54.568  1.00  0.00    -0.027 A 
ATOM      5  C   UNL     1      31.238   1.223  55.591  1.00  0.00     0.046 C 
ATOM      6  C   UNL     1      30.045   0.655  53.412  1.00  0.00     0.045 A 
ATOM      7  C   UNL     1      29.023   0.884  52.483  1.00  0.00     0.040 A 
ENDROOT
BRANCH   1   8
ATOM      8  C   UNL     1      26.984   1.928  51.658  1.00  0.00     0.255 C 
ATOM      9  O   UNL     1      26.593   0.857  51.263  1.00  0.00    -0.269 OA
ATOM     10  N   UNL     1      26.376   3.115  51.514  1.00  0.00    -0.322 N 
ATOM     11  H   UNL     1      26.768   3.908  52.040  1.00  0.00     0.170 HD
BRANCH  10  12
ATOM     12  C   UNL     1      25.266   3.372  50.719  1.00  0.00     0.044 A 
ATOM     13  C   UNL     1      24.492   2.311  50.186  1.00  0.00     0.052 A 
ATOM     14  C   UNL     1      24.954   4.692  50.326  1.00  0.00     0.039 A 
ATOM     15  C   UNL     1      23.368   2.560  49.394  1.00  0.00     0.049 A 
ATOM     16  C   UNL     1      23.795   4.944  49.538  1.00  0.00     0.060 A 
ATOM     17  C   UNL     1      23.043   3.870  49.057  1.00  0.00     0.039 A 
BRANCH  15  18
ATOM     18  N   UNL     1      22.571   1.518  48.896  1.00  0.00    -0.306 N 
ATOM     19  C   UNL     1      22.239   0.305  49.497  1.00  0.00     0.116 A 
ATOM     20  C   UNL     1      22.030   1.436  47.674  1.00  0.00     0.204 A 
ATOM     21  C   UNL     1      21.522  -0.422  48.613  1.00  0.00     0.056 A 
ATOM     22  N   UNL     1      21.375   0.317  47.490  1.00  0.00    -0.242 NA
ATOM     23  C   UNL     1      20.921  -1.793  48.808  1.00  0.00     0.068 C 
ENDBRANCH  15  18
BRANCH  16  24
ATOM     24  C   UNL     1      23.455   6.356  49.187  1.00  0.00     0.416 C 
ATOM     25  F   UNL     1      24.026   6.815  48.055  1.00  0.00    -0.166 F 
ATOM     26  F   UNL     1      22.162   6.481  48.913  1.00  0.00    -0.166 F 
ATOM     27  F   UNL     1      23.870   7.232  50.125  1.00  0.00    -0.166 F 
ENDBRANCH  16  24
ENDBRANCH  10  12
ENDBRANCH   1   8
BRANCH   6  28
ATOM     28  N   UNL     1      31.111  -0.201  53.104  1.00  0.00    -0.324 N 
ATOM     29  H   UNL     1      30.969  -1.221  53.088  1.00  0.00     0.170 HD
BRANCH  28  30
ATOM     30  C   UNL     1      32.366   0.340  52.818  1.00  0.00     0.227 A 
ATOM     31  N   UNL     1      32.923   1.447  53.293  1.00  0.00    -0.221 NA
ATOM     32  N   UNL     1      32.942  -0.438  51.866  1.00  0.00    -0.213 NA
ATOM     33  C   UNL     1      34.140   1.767  52.813  1.00  0.00     0.117 A 
ATOM     34  C   UNL     1      34.138  -0.062  51.397  1.00  0.00     0.077 A 
ATOM     35  C   UNL     1      34.754   1.046  51.861  1.00  0.00     0.049 A 
BRANCH  34  36
ATOM     36  C   UNL     1      34.742  -0.965  50.383  1.00  0.00     0.019 A 
ATOM     37  C   UNL     1      35.975  -0.673  49.779  1.00  0.00     0.013 A 
ATOM     38  C   UNL     1      34.077  -2.143  49.987  1.00  0.00     0.121 A 
ATOM     39  C   UNL     1      36.480  -1.541  48.819  1.00  0.00     0.021 A 
ATOM     40  N   UNL     1      34.555  -2.979  49.056  1.00  0.00    -0.264 NA
ATOM     41  C   UNL     1      35.748  -2.688  48.513  1.00  0.00     0.111 A 
ENDBRANCH  34  36
ENDBRANCH  28  30
ENDBRANCH   6  28
TORSDOF 7
ENDMDL
MODEL 11
REMARK VINA RESULT:   -10.921      3.845     11.606
REMARK INTER + INTRA:         -14.121
REMARK INTER:                 -13.009
REMARK INTRA:                  -1.113
REMARK CONF_INDEPENDENT:        2.088
REMARK UNBOUND:                -1.113
REMARK SMILES Cc1cn(-c2cc(NC(=O)c3ccc(C)c(Nc4nccc(-c5cccnc5)n4)c3)cc(C(F)(F)F)c2)cn1
REMARK SMILES IDX 11 1 12 2 13 3 14 4 15 5 16 6 30 7 9 8 10 9 8 10 7 12 6 13
REMARK SMILES IDX 31 14 5 15 32 16 37 17 4 18 3 19 38 20 2 21 39 22 1 23 33 24
REMARK SMILES IDX 34 25 35 26 36 27 17 28 18 30 19 31 29 32 20 33 22 34 21 35
REMARK SMILES IDX 23 36 24 37 28 38 25 39 27 40 26 41
REMARK H PARENT 8 11 17 29
ROOT
ATOM      1  C   UNL     1      25.635   3.501  51.750  1.00  0.00     0.042 A 
ATOM      2  C   UNL     1      24.627   2.980  50.924  1.00  0.00     0.014 A 
ATOM      3  C   UNL     1      23.311   3.438  51.006  1.00  0.00     0.006 A 
ATOM      4  C   UNL     1      22.931   4.366  51.962  1.00  0.00    -0.027 A 
ATOM      5  C   UNL     1      21.491   4.850  52.044  1.00  0.00     0.046 C 
ATOM      6  C   UNL     1      23.906   4.811  52.853  1.00  0.00     0.045 A 
ATOM      7  C   UNL     1      25.227   4.358  52.739  1.00  0.00     0.040 A 
ENDROOT
BRANCH   1   8
ATOM      8  C   UNL     1      27.017   2.989  51.820  1.00  0.00     0.255 C 
ATOM      9  O   UNL     1      27.603   2.932  50.766  1.00  0.00    -0.269 OA
ATOM     10  N   UNL     1      27.549   2.885  53.047  1.00  0.00    -0.322 N 
ATOM     11  H   UNL     1      26.934   3.105  53.843  1.00  0.00     0.170 HD
BRANCH  10  12
ATOM     12  C   UNL     1      28.853   2.508  53.342  1.00  0.00     0.044 A 
ATOM     13  C   UNL     1      29.509   1.506  52.585  1.00  0.00     0.052 A 
ATOM     14  C   UNL     1      29.511   3.027  54.478  1.00  0.00     0.039 A 
ATOM     15  C   UNL     1      30.824   1.127  52.868  1.00  0.00     0.049 A 
ATOM     16  C   UNL     1      30.858   2.656  54.752  1.00  0.00     0.060 A 
ATOM     17  C   UNL     1      31.478   1.686  53.961  1.00  0.00     0.039 A 
BRANCH  15  18
ATOM     18  N   UNL     1      31.497   0.166  52.098  1.00  0.00    -0.306 N 
ATOM     19  C   UNL     1      32.866   0.018  51.884  1.00  0.00     0.116 A 
ATOM     20  C   UNL     1      30.941  -0.770  51.320  1.00  0.00     0.204 A 
ATOM     21  C   UNL     1      33.049  -0.991  51.004  1.00  0.00     0.056 A 
ATOM     22  N   UNL     1      31.835  -1.492  50.688  1.00  0.00    -0.242 NA
ATOM     23  C   UNL     1      34.354  -1.538  50.477  1.00  0.00     0.068 C 
ENDBRANCH  15  18
BRANCH  16  24
ATOM     24  C   UNL     1      31.551   3.267  55.926  1.00  0.00     0.416 C 
ATOM     25  F   UNL     1      31.651   2.468  57.007  1.00  0.00    -0.166 F 
ATOM     26  F   UNL     1      32.825   3.519  55.651  1.00  0.00    -0.166 F 
ATOM     27  F   UNL     1      30.901   4.352  56.398  1.00  0.00    -0.166 F 
ENDBRANCH  16  24
ENDBRANCH  10  12
ENDBRANCH   1   8
BRANCH   6  28
ATOM     28  N   UNL     1      23.586   5.865  53.719  1.00  0.00    -0.324 N 
ATOM     29  H   UNL     1      22.684   6.352  53.632  1.00  0.00     0.170 HD
BRANCH  28  30
ATOM     30  C   UNL     1      24.502   6.248  54.701  1.00  0.00     0.227 A 
ATOM     31  N   UNL     1      25.828   6.217  54.661  1.00  0.00    -0.221 NA
ATOM     32  N   UNL     1      23.795   6.609  55.804  1.00  0.00    -0.213 NA
ATOM     33  C   UNL     1      26.476   6.607  55.775  1.00  0.00     0.117 A 
ATOM     34  C   UNL     1      24.484   6.958  56.897  1.00  0.00     0.077 A 
ATOM     35  C   UNL     1      25.834   6.960  56.900  1.00  0.00     0.049 A 
BRANCH  34  36
ATOM     36  C   UNL     1      23.666   7.378  58.064  1.00  0.00     0.019 A 
ATOM     37  C   UNL     1      24.255   7.919  59.219  1.00  0.00     0.013 A 
ATOM     38  C   UNL     1      22.265   7.229  58.047  1.00  0.00     0.121 A 
ATOM     39  C   UNL     1      23.443   8.270  60.289  1.00  0.00     0.021 A 
ATOM     40  N   UNL     1      21.478   7.559  59.079  1.00  0.00    -0.264 NA
ATOM     41  C   UNL     1      22.065   8.097  60.160  1.00  0.00     0.111 A 
ENDBRANCH  34  36
ENDBRANCH  28  30
ENDBRANCH   6  28
TORSDOF 7
ENDMDL
MODEL 12
REMARK VINA RESULT:   -10.886      8.454     15.253
REMARK INTER + INTRA:         -14.283
REMARK INTER:                 -12.974
REMARK INTRA:                  -1.309
REMARK CONF_INDEPENDENT:        2.088
REMARK UNBOUND:                -1.309
REMARK SMILES Cc1cn(-c2cc(NC(=O)c3ccc(C)c(Nc4nccc(-c5cccnc5)n4)c3)cc(C(F)(F)F)c2)cn1
REMARK SMILES IDX 11 1 12 2 13 3 14 4 15 5 16 6 30 7 9 8 10 9 8 10 7 12 6 13
REMARK SMILES IDX 31 14 5 15 32 16 37 17 4 18 3 19 38 20 2 21 39 22 1 23 33 24
REMARK SMILES IDX 34 25 35 26 36 27 17 28 18 30 19 31 29 32 20 33 22 34 21 35
REMARK SMILES IDX 23 36 24 37 28 38 25 39 27 40 26 41
REMARK H PARENT 8 11 17 29
ROOT
ATOM      1  C   UNL     1      35.989  -1.751  49.343  1.00  0.00     0.042 A 
ATOM      2  C   UNL     1      35.189  -2.898  49.227  1.00  0.00     0.014 A 
ATOM      3  C   UNL     1      33.812  -2.850  49.451  1.00  0.00     0.006 A 
ATOM      4  C   UNL     1      33.194  -1.686  49.878  1.00  0.00    -0.027 A 
ATOM      5  C   UNL     1      31.692  -1.650  50.125  1.00  0.00     0.046 C 
ATOM      6  C   UNL     1      33.999  -0.569  50.095  1.00  0.00     0.045 A 
ATOM      7  C   UNL     1      35.375  -0.631  49.841  1.00  0.00     0.040 A 
ENDROOT
BRANCH   1   8
ATOM      8  C   UNL     1      37.462  -1.736  49.249  1.00  0.00     0.255 C 
ATOM      9  O   UNL     1      38.043  -1.444  50.266  1.00  0.00    -0.269 OA
ATOM     10  N   UNL     1      37.990  -2.284  48.145  1.00  0.00    -0.322 N 
ATOM     11  H   UNL     1      37.331  -2.609  47.423  1.00  0.00     0.170 HD
BRANCH  10  12
ATOM     12  C   UNL     1      39.344  -2.453  47.885  1.00  0.00     0.044 A 
ATOM     13  C   UNL     1      39.907  -2.028  46.656  1.00  0.00     0.052 A 
ATOM     14  C   UNL     1      40.166  -3.160  48.789  1.00  0.00     0.039 A 
ATOM     15  C   UNL     1      41.270  -2.185  46.389  1.00  0.00     0.049 A 
ATOM     16  C   UNL     1      41.558  -3.299  48.526  1.00  0.00     0.060 A 
ATOM     17  C   UNL     1      42.078  -2.838  47.314  1.00  0.00     0.039 A 
BRANCH  15  18
ATOM     18  N   UNL     1      41.845  -1.730  45.193  1.00  0.00    -0.306 N 
ATOM     19  C   UNL     1      42.150  -0.425  44.809  1.00  0.00     0.116 A 
ATOM     20  C   UNL     1      42.141  -2.466  44.116  1.00  0.00     0.204 A 
ATOM     21  C   UNL     1      42.610  -0.456  43.539  1.00  0.00     0.056 A 
ATOM     22  N   UNL     1      42.628  -1.745  43.135  1.00  0.00    -0.242 NA
ATOM     23  C   UNL     1      43.085   0.702  42.695  1.00  0.00     0.068 C 
ENDBRANCH  15  18
BRANCH  16  24
ATOM     24  C   UNL     1      42.416  -4.000  49.529  1.00  0.00     0.416 C 
ATOM     25  F   UNL     1      41.818  -5.018  50.178  1.00  0.00    -0.166 F 
ATOM     26  F   UNL     1      43.437  -4.611  48.940  1.00  0.00    -0.166 F 
ATOM     27  F   UNL     1      42.811  -3.182  50.526  1.00  0.00    -0.166 F 
ENDBRANCH  16  24
ENDBRANCH  10  12
ENDBRANCH   1   8
BRANCH   6  28
ATOM     28  N   UNL     1      33.379   0.657  50.368  1.00  0.00    -0.324 N 
ATOM     29  H   UNL     1      33.061   1.261  49.597  1.00  0.00     0.170 HD
BRANCH  28  30
ATOM     30  C   UNL     1      33.195   1.054  51.694  1.00  0.00     0.227 A 
ATOM     31  N   UNL     1      33.891   1.932  52.405  1.00  0.00    -0.221 NA
ATOM     32  N   UNL     1      32.184   0.308  52.210  1.00  0.00    -0.213 NA
ATOM     33  C   UNL     1      33.525   2.097  53.690  1.00  0.00     0.117 A 
ATOM     34  C   UNL     1      31.878   0.484  53.501  1.00  0.00     0.077 A 
ATOM     35  C   UNL     1      32.545   1.379  54.261  1.00  0.00     0.049 A 
BRANCH  34  36
ATOM     36  C   UNL     1      30.742  -0.329  54.008  1.00  0.00     0.019 A 
ATOM     37  C   UNL     1      29.678   0.253  54.716  1.00  0.00     0.013 A 
ATOM     38  C   UNL     1      30.712  -1.722  53.802  1.00  0.00     0.121 A 
ATOM     39  C   UNL     1      28.656  -0.560  55.188  1.00  0.00     0.021 A 
ATOM     40  N   UNL     1      29.733  -2.513  54.262  1.00  0.00    -0.264 NA
ATOM     41  C   UNL     1      28.716  -1.926  54.914  1.00  0.00     0.111 A 
ENDBRANCH  34  36
ENDBRANCH  28  30
ENDBRANCH   6  28
TORSDOF 7
ENDMDL
MODEL 13
REMARK VINA RESULT:   -10.882      4.554      7.506
REMARK INTER + INTRA:         -13.752
REMARK INTER:                 -12.970
REMARK INTRA:                  -0.783
REMARK CONF_INDEPENDENT:        2.088
REMARK UNBOUND:                -0.783
REMARK SMILES Cc1cn(-c2cc(NC(=O)c3ccc(C)c(Nc4nccc(-c5cccnc5)n4)c3)cc(C(F)(F)F)c2)cn1
REMARK SMILES IDX 11 1 12 2 13 3 14 4 15 5 16 6 30 7 9 8 10 9 8 10 7 12 6 13
REMARK SMILES IDX 31 14 5 15 32 16 37 17 4 18 3 19 38 20 2 21 39 22 1 23 33 24
REMARK SMILES IDX 34 25 35 26 36 27 17 28 18 30 19 31 29 32 20 33 22 34 21 35
REMARK SMILES IDX 23 36 24 37 28 38 25 39 27 40 26 41
REMARK H PARENT 8 11 17 29
ROOT
ATOM      1  C   UNL     1      23.043   5.937  52.936  1.00  0.00     0.042 A 
ATOM      2  C   UNL     1      22.824   5.781  51.559  1.00  0.00     0.014 A 
ATOM      3  C   UNL     1      23.457   4.772  50.832  1.00  0.00     0.006 A 
ATOM      4  C   UNL     1      24.391   3.938  51.424  1.00  0.00    -0.027 A 
ATOM      5  C   UNL     1      25.080   2.846  50.617  1.00  0.00     0.046 C 
ATOM      6  C   UNL     1      24.691   4.154  52.769  1.00  0.00     0.045 A 
ATOM      7  C   UNL     1      24.025   5.156  53.487  1.00  0.00     0.040 A 
ENDROOT
BRANCH   1   8
ATOM      8  C   UNL     1      22.517   7.048  53.753  1.00  0.00     0.255 C 
ATOM      9  O   UNL     1      23.350   7.725  54.305  1.00  0.00    -0.269 OA
ATOM     10  N   UNL     1      21.217   7.336  53.594  1.00  0.00    -0.322 N 
ATOM     11  H   UNL     1      20.675   6.722  52.969  1.00  0.00     0.170 HD
BRANCH  10  12
ATOM     12  C   UNL     1      20.534   8.386  54.194  1.00  0.00     0.044 A 
ATOM     13  C   UNL     1      19.473   9.043  53.522  1.00  0.00     0.052 A 
ATOM     14  C   UNL     1      20.959   8.901  55.438  1.00  0.00     0.039 A 
ATOM     15  C   UNL     1      18.774  10.093  54.121  1.00  0.00     0.049 A 
ATOM     16  C   UNL     1      20.231   9.957  56.057  1.00  0.00     0.060 A 
ATOM     17  C   UNL     1      19.172  10.557  55.371  1.00  0.00     0.039 A 
BRANCH  15  18
ATOM     18  N   UNL     1      17.695  10.722  53.481  1.00  0.00    -0.306 N 
ATOM     19  C   UNL     1      16.435  11.032  53.990  1.00  0.00     0.116 A 
ATOM     20  C   UNL     1      17.625  11.079  52.193  1.00  0.00     0.204 A 
ATOM     21  C   UNL     1      15.693  11.555  52.989  1.00  0.00     0.056 A 
ATOM     22  N   UNL     1      16.466  11.606  51.882  1.00  0.00    -0.242 NA
ATOM     23  C   UNL     1      14.271  12.059  53.053  1.00  0.00     0.068 C 
ENDBRANCH  15  18
BRANCH  16  24
ATOM     24  C   UNL     1      20.668  10.443  57.401  1.00  0.00     0.416 C 
ATOM     25  F   UNL     1      21.538  11.472  57.380  1.00  0.00    -0.166 F 
ATOM     26  F   UNL     1      19.647  10.960  58.076  1.00  0.00    -0.166 F 
ATOM     27  F   UNL     1      21.322   9.494  58.102  1.00  0.00    -0.166 F 
ENDBRANCH  16  24
ENDBRANCH  10  12
ENDBRANCH   1   8
BRANCH   6  28
ATOM     28  N   UNL     1      25.505   3.225  53.428  1.00  0.00    -0.324 N 
ATOM     29  H   UNL     1      25.177   2.765  54.289  1.00  0.00     0.170 HD
BRANCH  28  30
ATOM     30  C   UNL     1      26.767   2.928  52.910  1.00  0.00     0.227 A 
ATOM     31  N   UNL     1      27.466   3.585  51.992  1.00  0.00    -0.221 NA
ATOM     32  N   UNL     1      27.172   1.753  53.458  1.00  0.00    -0.213 NA
ATOM     33  C   UNL     1      28.650   3.052  51.637  1.00  0.00     0.117 A 
ATOM     34  C   UNL     1      28.341   1.247  53.049  1.00  0.00     0.077 A 
ATOM     35  C   UNL     1      29.097   1.887  52.131  1.00  0.00     0.049 A 
BRANCH  34  36
ATOM     36  C   UNL     1      28.755  -0.022  53.704  1.00  0.00     0.019 A 
ATOM     37  C   UNL     1      28.050  -0.549  54.798  1.00  0.00     0.013 A 
ATOM     38  C   UNL     1      29.886  -0.726  53.248  1.00  0.00     0.121 A 
ATOM     39  C   UNL     1      28.497  -1.725  55.386  1.00  0.00     0.021 A 
ATOM     40  N   UNL     1      30.327  -1.856  53.816  1.00  0.00    -0.264 NA
ATOM     41  C   UNL     1      29.619  -2.351  54.844  1.00  0.00     0.111 A 
ENDBRANCH  34  36
ENDBRANCH  28  30
ENDBRANCH   6  28
TORSDOF 7
ENDMDL
MODEL 14
REMARK VINA RESULT:   -10.844      3.574     12.089
REMARK INTER + INTRA:         -14.242
REMARK INTER:                 -12.932
REMARK INTRA:                  -1.310
REMARK CONF_INDEPENDENT:        2.088
REMARK UNBOUND:                -1.310
REMARK SMILES Cc1cn(-c2cc(NC(=O)c3ccc(C)c(Nc4nccc(-c5cccnc5)n4)c3)cc(C(F)(F)F)c2)cn1
REMARK SMILES IDX 11 1 12 2 13 3 14 4 15 5 16 6 30 7 9 8 10 9 8 10 7 12 6 13
REMARK SMILES IDX 31 14 5 15 32 16 37 17 4 18 3 19 38 20 2 21 39 22 1 23 33 24
REMARK SMILES IDX 34 25 35 26 36 27 17 28 18 30 19 31 29 32 20 33 22 34 21 35
REMARK SMILES IDX 23 36 24 37 28 38 25 39 27 40 26 41
REMARK H PARENT 8 11 17 29
ROOT
ATOM      1  C   UNL     1      25.662   3.766  51.901  1.00  0.00     0.042 A 
ATOM      2  C   UNL     1      24.926   3.972  50.725  1.00  0.00     0.014 A 
ATOM      3  C   UNL     1      23.600   4.405  50.764  1.00  0.00     0.006 A 
ATOM      4  C   UNL     1      22.932   4.569  51.967  1.00  0.00    -0.027 A 
ATOM      5  C   UNL     1      21.484   5.035  51.994  1.00  0.00     0.046 C 
ATOM      6  C   UNL     1      23.627   4.266  53.137  1.00  0.00     0.045 A 
ATOM      7  C   UNL     1      24.965   3.857  53.078  1.00  0.00     0.040 A 
ENDROOT
BRANCH   1   8
ATOM      8  C   UNL     1      27.020   3.191  51.956  1.00  0.00     0.255 C 
ATOM      9  O   UNL     1      27.572   3.060  50.891  1.00  0.00    -0.269 OA
ATOM     10  N   UNL     1      27.582   3.114  53.172  1.00  0.00    -0.322 N 
ATOM     11  H   UNL     1      27.001   3.399  53.974  1.00  0.00     0.170 HD
BRANCH  10  12
ATOM     12  C   UNL     1      28.874   2.687  53.449  1.00  0.00     0.044 A 
ATOM     13  C   UNL     1      29.484   1.668  52.676  1.00  0.00     0.052 A 
ATOM     14  C   UNL     1      29.564   3.173  54.581  1.00  0.00     0.039 A 
ATOM     15  C   UNL     1      30.788   1.238  52.941  1.00  0.00     0.049 A 
ATOM     16  C   UNL     1      30.900   2.750  54.835  1.00  0.00     0.060 A 
ATOM     17  C   UNL     1      31.475   1.765  54.030  1.00  0.00     0.039 A 
BRANCH  15  18
ATOM     18  N   UNL     1      31.416   0.260  52.155  1.00  0.00    -0.306 N 
ATOM     19  C   UNL     1      32.667   0.299  51.542  1.00  0.00     0.116 A 
ATOM     20  C   UNL     1      30.889  -0.902  51.751  1.00  0.00     0.204 A 
ATOM     21  C   UNL     1      32.817  -0.831  50.818  1.00  0.00     0.056 A 
ATOM     22  N   UNL     1      31.708  -1.584  50.988  1.00  0.00    -0.242 NA
ATOM     23  C   UNL     1      34.010  -1.254  49.994  1.00  0.00     0.068 C 
ENDBRANCH  15  18
BRANCH  16  24
ATOM     24  C   UNL     1      31.629   3.326  56.006  1.00  0.00     0.416 C 
ATOM     25  F   UNL     1      31.047   4.407  56.563  1.00  0.00    -0.166 F 
ATOM     26  F   UNL     1      31.650   2.472  57.022  1.00  0.00    -0.166 F 
ATOM     27  F   UNL     1      32.860   3.767  55.677  1.00  0.00    -0.166 F 
ENDBRANCH  16  24
ENDBRANCH  10  12
ENDBRANCH   1   8
BRANCH   6  28
ATOM     28  N   UNL     1      23.030   4.578  54.366  1.00  0.00    -0.324 N 
ATOM     29  H   UNL     1      22.469   3.873  54.864  1.00  0.00     0.170 HD
BRANCH  28  30
ATOM     30  C   UNL     1      23.203   5.852  54.910  1.00  0.00     0.227 A 
ATOM     31  N   UNL     1      24.090   6.260  55.809  1.00  0.00    -0.221 NA
ATOM     32  N   UNL     1      22.223   6.649  54.412  1.00  0.00    -0.213 NA
ATOM     33  C   UNL     1      24.009   7.547  56.198  1.00  0.00     0.117 A 
ATOM     34  C   UNL     1      22.164   7.911  54.853  1.00  0.00     0.077 A 
ATOM     35  C   UNL     1      23.054   8.378  55.754  1.00  0.00     0.049 A 
BRANCH  34  36
ATOM     36  C   UNL     1      21.095   8.751  54.252  1.00  0.00     0.019 A 
ATOM     37  C   UNL     1      19.738   8.525  54.530  1.00  0.00     0.013 A 
ATOM     38  C   UNL     1      21.421   9.797  53.366  1.00  0.00     0.121 A 
ATOM     39  C   UNL     1      18.781   9.327  53.920  1.00  0.00     0.021 A 
ATOM     40  N   UNL     1      20.503  10.568  52.769  1.00  0.00    -0.264 NA
ATOM     41  C   UNL     1      19.214  10.346  53.073  1.00  0.00     0.111 A 
ENDBRANCH  34  36
ENDBRANCH  28  30
ENDBRANCH   6  28
TORSDOF 7
ENDMDL
MODEL 15
REMARK VINA RESULT:   -10.831      4.579     13.450
REMARK INTER + INTRA:         -14.223
REMARK INTER:                 -12.919
REMARK INTRA:                  -1.304
REMARK CONF_INDEPENDENT:        2.088
REMARK UNBOUND:                -1.304
REMARK SMILES Cc1cn(-c2cc(NC(=O)c3ccc(C)c(Nc4nccc(-c5cccnc5)n4)c3)cc(C(F)(F)F)c2)cn1
REMARK SMILES IDX 11 1 12 2 13 3 14 4 15 5 16 6 30 7 9 8 10 9 8 10 7 12 6 13
REMARK SMILES IDX 31 14 5 15 32 16 37 17 4 18 3 19 38 20 2 21 39 22 1 23 33 24
REMARK SMILES IDX 34 25 35 26 36 27 17 28 18 30 19 31 29 32 20 33 22 34 21 35
REMARK SMILES IDX 23 36 24 37 28 38 25 39 27 40 26 41
REMARK H PARENT 8 11 17 29
ROOT
ATOM      1  C   UNL     1      21.150   7.145  54.258  1.00  0.00     0.042 A 
ATOM      2  C   UNL     1      20.956   7.291  55.640  1.00  0.00     0.014 A 
ATOM      3  C   UNL     1      20.230   8.362  56.163  1.00  0.00     0.006 A 
ATOM      4  C   UNL     1      19.744   9.368  55.344  1.00  0.00    -0.027 A 
ATOM      5  C   UNL     1      18.961  10.535  55.930  1.00  0.00     0.046 C 
ATOM      6  C   UNL     1      20.023   9.283  53.981  1.00  0.00     0.045 A 
ATOM      7  C   UNL     1      20.731   8.187  53.473  1.00  0.00     0.040 A 
ENDROOT
BRANCH   1   8
ATOM      8  C   UNL     1      22.006   6.119  53.630  1.00  0.00     0.255 C 
ATOM      9  O   UNL     1      21.903   5.007  54.088  1.00  0.00    -0.269 OA
ATOM     10  N   UNL     1      22.602   6.469  52.480  1.00  0.00    -0.322 N 
ATOM     11  H   UNL     1      22.470   7.439  52.162  1.00  0.00     0.170 HD
BRANCH  10  12
ATOM     12  C   UNL     1      23.379   5.642  51.680  1.00  0.00     0.044 A 
ATOM     13  C   UNL     1      24.497   4.954  52.214  1.00  0.00     0.052 A 
ATOM     14  C   UNL     1      23.145   5.562  50.290  1.00  0.00     0.039 A 
ATOM     15  C   UNL     1      25.280   4.112  51.419  1.00  0.00     0.049 A 
ATOM     16  C   UNL     1      23.930   4.686  49.486  1.00  0.00     0.060 A 
ATOM     17  C   UNL     1      25.005   4.003  50.060  1.00  0.00     0.039 A 
BRANCH  15  18
ATOM     18  N   UNL     1      26.363   3.395  51.948  1.00  0.00    -0.306 N 
ATOM     19  C   UNL     1      26.708   3.187  53.282  1.00  0.00     0.116 A 
ATOM     20  C   UNL     1      27.361   2.827  51.259  1.00  0.00     0.204 A 
ATOM     21  C   UNL     1      27.877   2.510  53.315  1.00  0.00     0.056 A 
ATOM     22  N   UNL     1      28.252   2.266  52.040  1.00  0.00    -0.242 NA
ATOM     23  C   UNL     1      28.642   2.037  54.527  1.00  0.00     0.068 C 
ENDBRANCH  15  18
BRANCH  16  24
ATOM     24  C   UNL     1      23.622   4.575  48.028  1.00  0.00     0.416 C 
ATOM     25  F   UNL     1      24.509   5.177  47.211  1.00  0.00    -0.166 F 
ATOM     26  F   UNL     1      23.685   3.313  47.621  1.00  0.00    -0.166 F 
ATOM     27  F   UNL     1      22.451   5.162  47.705  1.00  0.00    -0.166 F 
ENDBRANCH  16  24
ENDBRANCH  10  12
ENDBRANCH   1   8
BRANCH   6  28
ATOM     28  N   UNL     1      19.407  10.197  53.117  1.00  0.00    -0.324 N 
ATOM     29  H   UNL     1      19.973  10.754  52.460  1.00  0.00     0.170 HD
BRANCH  28  30
ATOM     30  C   UNL     1      18.019  10.347  53.151  1.00  0.00     0.227 A 
ATOM     31  N   UNL     1      17.300  11.460  53.079  1.00  0.00    -0.221 NA
ATOM     32  N   UNL     1      17.477   9.120  53.360  1.00  0.00    -0.213 NA
ATOM     33  C   UNL     1      15.964  11.326  53.183  1.00  0.00     0.117 A 
ATOM     34  C   UNL     1      16.148   9.040  53.489  1.00  0.00     0.077 A 
ATOM     35  C   UNL     1      15.371  10.142  53.404  1.00  0.00     0.049 A 
BRANCH  34  36
ATOM     36  C   UNL     1      15.601   7.672  53.681  1.00  0.00     0.019 A 
ATOM     37  C   UNL     1      14.790   7.351  54.781  1.00  0.00     0.013 A 
ATOM     38  C   UNL     1      15.900   6.647  52.761  1.00  0.00     0.121 A 
ATOM     39  C   UNL     1      14.328   6.048  54.922  1.00  0.00     0.021 A 
ATOM     40  N   UNL     1      15.465   5.388  52.897  1.00  0.00    -0.264 NA
ATOM     41  C   UNL     1      14.669   5.115  53.944  1.00  0.00     0.111 A 
ENDBRANCH  34  36
ENDBRANCH  28  30
ENDBRANCH   6  28
TORSDOF 7
ENDMDL
MODEL 16
REMARK VINA RESULT:   -10.829      3.557     12.271
REMARK INTER + INTRA:         -14.129
REMARK INTER:                 -12.917
REMARK INTRA:                  -1.212
REMARK CONF_INDEPENDENT:        2.088
REMARK UNBOUND:                -1.212
REMARK SMILES Cc1cn(-c2cc(NC(=O)c3ccc(C)c(Nc4nccc(-c5cccnc5)n4)c3)cc(C(F)(F)F)c2)cn1
REMARK SMILES IDX 11 1 12 2 13 3 14 4 15 5 16 6 30 7 9 8 10 9 8 10 7 12 6 13
REMARK SMILES IDX 31 14 5 15 32 16 37 17 4 18 3 19 38 20 2 21 39 22 1 23 33 24
REMARK SMILES IDX 34 25 35 26 36 27 17 28 18 30 19 31 29 32 20 33 22 34 21 35
REMARK SMILES IDX 23 36 24 37 28 38 25 39 27 40 26 41
REMARK H PARENT 8 11 17 29
ROOT
ATOM      1  C   UNL     1      25.745   3.764  51.883  1.00  0.00     0.042 A 
ATOM      2  C   UNL     1      25.297   4.372  50.701  1.00  0.00     0.014 A 
ATOM      3  C   UNL     1      24.128   5.134  50.673  1.00  0.00     0.006 A 
ATOM      4  C   UNL     1      23.320   5.252  51.792  1.00  0.00    -0.027 A 
ATOM      5  C   UNL     1      22.044   6.080  51.745  1.00  0.00     0.046 C 
ATOM      6  C   UNL     1      23.705   4.565  52.942  1.00  0.00     0.045 A 
ATOM      7  C   UNL     1      24.895   3.826  52.957  1.00  0.00     0.040 A 
ENDROOT
BRANCH   1   8
ATOM      8  C   UNL     1      26.893   2.842  51.975  1.00  0.00     0.255 C 
ATOM      9  O   UNL     1      27.690   2.914  51.071  1.00  0.00    -0.269 OA
ATOM     10  N   UNL     1      27.059   2.219  53.151  1.00  0.00    -0.322 N 
ATOM     11  H   UNL     1      26.341   2.379  53.871  1.00  0.00     0.170 HD
BRANCH  10  12
ATOM     12  C   UNL     1      28.112   1.376  53.487  1.00  0.00     0.044 A 
ATOM     13  C   UNL     1      29.432   1.655  53.056  1.00  0.00     0.052 A 
ATOM     14  C   UNL     1      27.871   0.160  54.163  1.00  0.00     0.039 A 
ATOM     15  C   UNL     1      30.499   0.819  53.397  1.00  0.00     0.049 A 
ATOM     16  C   UNL     1      28.962  -0.679  54.529  1.00  0.00     0.060 A 
ATOM     17  C   UNL     1      30.253  -0.350  54.109  1.00  0.00     0.039 A 
BRANCH  15  18
ATOM     18  N   UNL     1      31.817   1.109  53.010  1.00  0.00    -0.306 N 
ATOM     19  C   UNL     1      32.563   0.563  51.968  1.00  0.00     0.116 A 
ATOM     20  C   UNL     1      32.675   1.923  53.637  1.00  0.00     0.204 A 
ATOM     21  C   UNL     1      33.810   1.080  52.027  1.00  0.00     0.056 A 
ATOM     22  N   UNL     1      33.850   1.953  53.058  1.00  0.00    -0.242 NA
ATOM     23  C   UNL     1      34.972   0.809  51.102  1.00  0.00     0.068 C 
ENDBRANCH  15  18
BRANCH  16  24
ATOM     24  C   UNL     1      28.684  -1.930  55.297  1.00  0.00     0.416 C 
ATOM     25  F   UNL     1      29.760  -2.709  55.526  1.00  0.00    -0.166 F 
ATOM     26  F   UNL     1      28.278  -1.652  56.531  1.00  0.00    -0.166 F 
ATOM     27  F   UNL     1      27.834  -2.752  54.648  1.00  0.00    -0.166 F 
ENDBRANCH  16  24
ENDBRANCH  10  12
ENDBRANCH   1   8
BRANCH   6  28
ATOM     28  N   UNL     1      22.996   4.799  54.127  1.00  0.00    -0.324 N 
ATOM     29  H   UNL     1      22.366   4.077  54.507  1.00  0.00     0.170 HD
BRANCH  28  30
ATOM     30  C   UNL     1      23.150   6.017  54.791  1.00  0.00     0.227 A 
ATOM     31  N   UNL     1      24.171   6.443  55.524  1.00  0.00    -0.221 NA
ATOM     32  N   UNL     1      21.999   6.721  54.633  1.00  0.00    -0.213 NA
ATOM     33  C   UNL     1      24.043   7.656  56.094  1.00  0.00     0.117 A 
ATOM     34  C   UNL     1      21.906   7.907  55.245  1.00  0.00     0.077 A 
ATOM     35  C   UNL     1      22.925   8.391  55.987  1.00  0.00     0.049 A 
BRANCH  34  36
ATOM     36  C   UNL     1      20.642   8.652  55.012  1.00  0.00     0.019 A 
ATOM     37  C   UNL     1      19.675   8.794  56.021  1.00  0.00     0.013 A 
ATOM     38  C   UNL     1      20.372   9.228  53.755  1.00  0.00     0.121 A 
ATOM     39  C   UNL     1      18.501   9.480  55.738  1.00  0.00     0.021 A 
ATOM     40  N   UNL     1      19.239   9.884  53.475  1.00  0.00    -0.264 NA
ATOM     41  C   UNL     1      18.343  10.027  54.465  1.00  0.00     0.111 A 
ENDBRANCH  34  36
ENDBRANCH  28  30
ENDBRANCH   6  28
TORSDOF 7
ENDMDL
MODEL 17
REMARK VINA RESULT:   -10.814      4.073     11.221
REMARK INTER + INTRA:         -14.152
REMARK INTER:                 -12.902
REMARK INTRA:                  -1.250
REMARK CONF_INDEPENDENT:        2.088
REMARK UNBOUND:                -1.250
REMARK SMILES Cc1cn(-c2cc(NC(=O)c3ccc(C)c(Nc4nccc(-c5cccnc5)n4)c3)cc(C(F)(F)F)c2)cn1
REMARK SMILES IDX 11 1 12 2 13 3 14 4 15 5 16 6 30 7 9 8 10 9 8 10 7 12 6 13
REMARK SMILES IDX 31 14 5 15 32 16 37 17 4 18 3 19 38 20 2 21 39 22 1 23 33 24
REMARK SMILES IDX 34 25 35 26 36 27 17 28 18 30 19 31 29 32 20 33 22 34 21 35
REMARK SMILES IDX 23 36 24 37 28 38 25 39 27 40 26 41
REMARK H PARENT 8 11 17 29
ROOT
ATOM      1  C   UNL     1      25.622   3.806  51.884  1.00  0.00     0.042 A 
ATOM      2  C   UNL     1      24.905   4.036  50.700  1.00  0.00     0.014 A 
ATOM      3  C   UNL     1      23.597   4.521  50.725  1.00  0.00     0.006 A 
ATOM      4  C   UNL     1      22.926   4.715  51.922  1.00  0.00    -0.027 A 
ATOM      5  C   UNL     1      21.496   5.238  51.934  1.00  0.00     0.046 C 
ATOM      6  C   UNL     1      23.597   4.390  53.099  1.00  0.00     0.045 A 
ATOM      7  C   UNL     1      24.918   3.929  53.054  1.00  0.00     0.040 A 
ENDROOT
BRANCH   1   8
ATOM      8  C   UNL     1      26.956   3.178  51.954  1.00  0.00     0.255 C 
ATOM      9  O   UNL     1      27.456   2.902  50.890  1.00  0.00    -0.269 OA
ATOM     10  N   UNL     1      27.565   3.214  53.149  1.00  0.00    -0.322 N 
ATOM     11  H   UNL     1      27.032   3.613  53.934  1.00  0.00     0.170 HD
BRANCH  10  12
ATOM     12  C   UNL     1      28.849   2.761  53.424  1.00  0.00     0.044 A 
ATOM     13  C   UNL     1      29.449   1.750  52.633  1.00  0.00     0.052 A 
ATOM     14  C   UNL     1      29.539   3.211  54.571  1.00  0.00     0.039 A 
ATOM     15  C   UNL     1      30.744   1.295  52.896  1.00  0.00     0.049 A 
ATOM     16  C   UNL     1      30.867   2.763  54.824  1.00  0.00     0.060 A 
ATOM     17  C   UNL     1      31.432   1.787  54.000  1.00  0.00     0.039 A 
BRANCH  15  18
ATOM     18  N   UNL     1      31.362   0.324  52.093  1.00  0.00    -0.306 N 
ATOM     19  C   UNL     1      32.722   0.087  51.896  1.00  0.00     0.116 A 
ATOM     20  C   UNL     1      30.757  -0.533  51.262  1.00  0.00     0.204 A 
ATOM     21  C   UNL     1      32.850  -0.891  50.973  1.00  0.00     0.056 A 
ATOM     22  N   UNL     1      31.609  -1.288  50.613  1.00  0.00    -0.242 NA
ATOM     23  C   UNL     1      34.122  -1.506  50.443  1.00  0.00     0.068 C 
ENDBRANCH  15  18
BRANCH  16  24
ATOM     24  C   UNL     1      31.596   3.302  56.011  1.00  0.00     0.416 C 
ATOM     25  F   UNL     1      31.650   2.472  57.072  1.00  0.00    -0.166 F 
ATOM     26  F   UNL     1      32.883   3.484  55.739  1.00  0.00    -0.166 F 
ATOM     27  F   UNL     1      31.014   4.412  56.511  1.00  0.00    -0.166 F 
ENDBRANCH  16  24
ENDBRANCH  10  12
ENDBRANCH   1   8
BRANCH   6  28
ATOM     28  N   UNL     1      23.002   4.730  54.321  1.00  0.00    -0.324 N 
ATOM     29  H   UNL     1      22.424   4.043  54.826  1.00  0.00     0.170 HD
BRANCH  28  30
ATOM     30  C   UNL     1      23.198   6.007  54.849  1.00  0.00     0.227 A 
ATOM     31  N   UNL     1      22.834   7.181  54.347  1.00  0.00    -0.221 NA
ATOM     32  N   UNL     1      23.929   5.876  55.986  1.00  0.00    -0.213 NA
ATOM     33  C   UNL     1      23.190   8.275  55.046  1.00  0.00     0.117 A 
ATOM     34  C   UNL     1      24.287   6.994  56.628  1.00  0.00     0.077 A 
ATOM     35  C   UNL     1      23.925   8.210  56.167  1.00  0.00     0.049 A 
BRANCH  34  36
ATOM     36  C   UNL     1      25.056   6.794  57.885  1.00  0.00     0.019 A 
ATOM     37  C   UNL     1      24.415   6.687  59.129  1.00  0.00     0.013 A 
ATOM     38  C   UNL     1      26.462   6.722  57.859  1.00  0.00     0.121 A 
ATOM     39  C   UNL     1      25.186   6.527  60.274  1.00  0.00     0.021 A 
ATOM     40  N   UNL     1      27.211   6.576  58.959  1.00  0.00    -0.264 NA
ATOM     41  C   UNL     1      26.571   6.451  60.134  1.00  0.00     0.111 A 
ENDBRANCH  34  36
ENDBRANCH  28  30
ENDBRANCH   6  28
TORSDOF 7
ENDMDL
MODEL 18
REMARK VINA RESULT:   -10.571      8.269     14.959
REMARK INTER + INTRA:         -14.001
REMARK INTER:                 -12.660
REMARK INTRA:                  -1.342
REMARK CONF_INDEPENDENT:        2.088
REMARK UNBOUND:                -1.342
REMARK SMILES Cc1cn(-c2cc(NC(=O)c3ccc(C)c(Nc4nccc(-c5cccnc5)n4)c3)cc(C(F)(F)F)c2)cn1
REMARK SMILES IDX 11 1 12 2 13 3 14 4 15 5 16 6 30 7 9 8 10 9 8 10 7 12 6 13
REMARK SMILES IDX 31 14 5 15 32 16 37 17 4 18 3 19 38 20 2 21 39 22 1 23 33 24
REMARK SMILES IDX 34 25 35 26 36 27 17 28 18 30 19 31 29 32 20 33 22 34 21 35
REMARK SMILES IDX 23 36 24 37 28 38 25 39 27 40 26 41
REMARK H PARENT 8 11 17 29
ROOT
ATOM      1  C   UNL     1      36.092  -1.668  49.583  1.00  0.00     0.042 A 
ATOM      2  C   UNL     1      35.328  -2.816  49.325  1.00  0.00     0.014 A 
ATOM      3  C   UNL     1      33.934  -2.790  49.385  1.00  0.00     0.006 A 
ATOM      4  C   UNL     1      33.253  -1.651  49.783  1.00  0.00    -0.027 A 
ATOM      5  C   UNL     1      31.733  -1.639  49.852  1.00  0.00     0.046 C 
ATOM      6  C   UNL     1      34.012  -0.537  50.141  1.00  0.00     0.045 A 
ATOM      7  C   UNL     1      35.409  -0.576  50.049  1.00  0.00     0.040 A 
ENDROOT
BRANCH   1   8
ATOM      8  C   UNL     1      37.566  -1.637  49.666  1.00  0.00     0.255 C 
ATOM      9  O   UNL     1      38.020  -0.966  50.560  1.00  0.00    -0.269 OA
ATOM     10  N   UNL     1      38.220  -2.538  48.917  1.00  0.00    -0.322 N 
ATOM     11  H   UNL     1      37.651  -3.132  48.297  1.00  0.00     0.170 HD
BRANCH  10  12
ATOM     12  C   UNL     1      39.594  -2.743  48.902  1.00  0.00     0.044 A 
ATOM     13  C   UNL     1      40.356  -2.648  50.092  1.00  0.00     0.052 A 
ATOM     14  C   UNL     1      40.278  -2.931  47.681  1.00  0.00     0.039 A 
ATOM     15  C   UNL     1      41.738  -2.862  50.088  1.00  0.00     0.049 A 
ATOM     16  C   UNL     1      41.682  -3.171  47.682  1.00  0.00     0.060 A 
ATOM     17  C   UNL     1      42.391  -3.098  48.883  1.00  0.00     0.039 A 
BRANCH  15  18
ATOM     18  N   UNL     1      42.495  -2.812  51.268  1.00  0.00    -0.306 N 
ATOM     19  C   UNL     1      42.565  -3.741  52.304  1.00  0.00     0.116 A 
ATOM     20  C   UNL     1      43.255  -1.794  51.690  1.00  0.00     0.204 A 
ATOM     21  C   UNL     1      43.356  -3.234  53.274  1.00  0.00     0.056 A 
ATOM     22  N   UNL     1      43.804  -2.029  52.856  1.00  0.00    -0.242 NA
ATOM     23  C   UNL     1      43.749  -3.875  54.583  1.00  0.00     0.068 C 
ENDBRANCH  15  18
BRANCH  16  24
ATOM     24  C   UNL     1      42.371  -3.426  46.381  1.00  0.00     0.416 C 
ATOM     25  F   UNL     1      41.813  -2.823  45.313  1.00  0.00    -0.166 F 
ATOM     26  F   UNL     1      43.594  -2.911  46.380  1.00  0.00    -0.166 F 
ATOM     27  F   UNL     1      42.362  -4.733  46.044  1.00  0.00    -0.166 F 
ENDBRANCH  16  24
ENDBRANCH  10  12
ENDBRANCH   1   8
BRANCH   6  28
ATOM     28  N   UNL     1      33.346   0.671  50.388  1.00  0.00    -0.324 N 
ATOM     29  H   UNL     1      33.006   1.246  49.605  1.00  0.00     0.170 HD
BRANCH  28  30
ATOM     30  C   UNL     1      33.149   1.089  51.705  1.00  0.00     0.227 A 
ATOM     31  N   UNL     1      33.834   1.983  52.407  1.00  0.00    -0.221 NA
ATOM     32  N   UNL     1      32.138   0.346  52.226  1.00  0.00    -0.213 NA
ATOM     33  C   UNL     1      33.457   2.167  53.686  1.00  0.00     0.117 A 
ATOM     34  C   UNL     1      31.820   0.543  53.511  1.00  0.00     0.077 A 
ATOM     35  C   UNL     1      32.476   1.454  54.261  1.00  0.00     0.049 A 
BRANCH  34  36
ATOM     36  C   UNL     1      30.685  -0.268  54.023  1.00  0.00     0.019 A 
ATOM     37  C   UNL     1      29.617   0.319  54.720  1.00  0.00     0.013 A 
ATOM     38  C   UNL     1      30.659  -1.664  53.832  1.00  0.00     0.121 A 
ATOM     39  C   UNL     1      28.595  -0.492  55.197  1.00  0.00     0.021 A 
ATOM     40  N   UNL     1      29.681  -2.452  54.296  1.00  0.00    -0.264 NA
ATOM     41  C   UNL     1      28.659  -1.860  54.937  1.00  0.00     0.111 A 
ENDBRANCH  34  36
ENDBRANCH  28  30
ENDBRANCH   6  28
TORSDOF 7
ENDMDL
MODEL 19
REMARK VINA RESULT:   -10.531      5.706     10.810
REMARK INTER + INTRA:         -13.789
REMARK INTER:                 -12.619
REMARK INTRA:                  -1.170
REMARK CONF_INDEPENDENT:        2.088
REMARK UNBOUND:                -1.170
REMARK SMILES Cc1cn(-c2cc(NC(=O)c3ccc(C)c(Nc4nccc(-c5cccnc5)n4)c3)cc(C(F)(F)F)c2)cn1
REMARK SMILES IDX 11 1 12 2 13 3 14 4 15 5 16 6 30 7 9 8 10 9 8 10 7 12 6 13
REMARK SMILES IDX 31 14 5 15 32 16 37 17 4 18 3 19 38 20 2 21 39 22 1 23 33 24
REMARK SMILES IDX 34 25 35 26 36 27 17 28 18 30 19 31 29 32 20 33 22 34 21 35
REMARK SMILES IDX 23 36 24 37 28 38 25 39 27 40 26 41
REMARK H PARENT 8 11 17 29
ROOT
ATOM      1  C   UNL     1      22.351   6.461  55.209  1.00  0.00     0.042 A 
ATOM      2  C   UNL     1      21.601   7.585  54.832  1.00  0.00     0.014 A 
ATOM      3  C   UNL     1      21.127   8.494  55.779  1.00  0.00     0.006 A 
ATOM      4  C   UNL     1      21.309   8.278  57.136  1.00  0.00    -0.027 A 
ATOM      5  C   UNL     1      20.781   9.274  58.158  1.00  0.00     0.046 C 
ATOM      6  C   UNL     1      21.964   7.110  57.522  1.00  0.00     0.045 A 
ATOM      7  C   UNL     1      22.453   6.223  56.555  1.00  0.00     0.040 A 
ENDROOT
BRANCH   1   8
ATOM      8  C   UNL     1      22.780   5.387  54.292  1.00  0.00     0.255 C 
ATOM      9  O   UNL     1      21.896   4.683  53.869  1.00  0.00    -0.269 OA
ATOM     10  N   UNL     1      24.040   5.466  53.837  1.00  0.00    -0.322 N 
ATOM     11  H   UNL     1      24.626   6.225  54.211  1.00  0.00     0.170 HD
BRANCH  10  12
ATOM     12  C   UNL     1      24.625   4.616  52.906  1.00  0.00     0.044 A 
ATOM     13  C   UNL     1      23.904   4.175  51.769  1.00  0.00     0.052 A 
ATOM     14  C   UNL     1      25.910   4.078  53.136  1.00  0.00     0.039 A 
ATOM     15  C   UNL     1      24.489   3.329  50.823  1.00  0.00     0.049 A 
ATOM     16  C   UNL     1      26.512   3.233  52.159  1.00  0.00     0.060 A 
ATOM     17  C   UNL     1      25.776   2.847  51.037  1.00  0.00     0.039 A 
BRANCH  15  18
ATOM     18  N   UNL     1      23.798   2.920  49.672  1.00  0.00    -0.306 N 
ATOM     19  C   UNL     1      22.937   1.837  49.507  1.00  0.00     0.116 A 
ATOM     20  C   UNL     1      23.900   3.447  48.447  1.00  0.00     0.204 A 
ATOM     21  C   UNL     1      22.573   1.782  48.207  1.00  0.00     0.056 A 
ATOM     22  N   UNL     1      23.160   2.817  47.567  1.00  0.00    -0.242 NA
ATOM     23  C   UNL     1      21.639   0.798  47.544  1.00  0.00     0.068 C 
ENDBRANCH  15  18
BRANCH  16  24
ATOM     24  C   UNL     1      27.897   2.726  52.399  1.00  0.00     0.416 C 
ATOM     25  F   UNL     1      28.812   3.116  51.490  1.00  0.00    -0.166 F 
ATOM     26  F   UNL     1      28.398   3.221  53.524  1.00  0.00    -0.166 F 
ATOM     27  F   UNL     1      27.965   1.379  52.354  1.00  0.00    -0.166 F 
ENDBRANCH  16  24
ENDBRANCH  10  12
ENDBRANCH   1   8
BRANCH   6  28
ATOM     28  N   UNL     1      22.302   6.950  58.872  1.00  0.00    -0.324 N 
ATOM     29  H   UNL     1      21.758   6.313  59.472  1.00  0.00     0.170 HD
BRANCH  28  30
ATOM     30  C   UNL     1      23.382   7.661  59.398  1.00  0.00     0.227 A 
ATOM     31  N   UNL     1      23.678   8.947  59.262  1.00  0.00    -0.221 NA
ATOM     32  N   UNL     1      24.180   6.775  60.049  1.00  0.00    -0.213 NA
ATOM     33  C   UNL     1      24.816   9.372  59.844  1.00  0.00     0.117 A 
ATOM     34  C   UNL     1      25.317   7.238  60.583  1.00  0.00     0.077 A 
ATOM     35  C   UNL     1      25.653   8.542  60.487  1.00  0.00     0.049 A 
BRANCH  34  36
ATOM     36  C   UNL     1      26.137   6.237  61.314  1.00  0.00     0.019 A 
ATOM     37  C   UNL     1      26.400   6.363  62.687  1.00  0.00     0.013 A 
ATOM     38  C   UNL     1      26.690   5.133  60.636  1.00  0.00     0.121 A 
ATOM     39  C   UNL     1      27.194   5.410  63.312  1.00  0.00     0.021 A 
ATOM     40  N   UNL     1      27.463   4.216  61.231  1.00  0.00    -0.264 NA
ATOM     41  C   UNL     1      27.677   4.347  62.551  1.00  0.00     0.111 A 
ENDBRANCH  34  36
ENDBRANCH  28  30
ENDBRANCH   6  28
TORSDOF 7
ENDMDL
MODEL 20
REMARK VINA RESULT:   -10.449      5.209      8.060
REMARK INTER + INTRA:         -13.733
REMARK INTER:                 -12.537
REMARK INTRA:                  -1.196
REMARK CONF_INDEPENDENT:        2.088
REMARK UNBOUND:                -1.196
REMARK SMILES Cc1cn(-c2cc(NC(=O)c3ccc(C)c(Nc4nccc(-c5cccnc5)n4)c3)cc(C(F)(F)F)c2)cn1
REMARK SMILES IDX 11 1 12 2 13 3 14 4 15 5 16 6 30 7 9 8 10 9 8 10 7 12 6 13
REMARK SMILES IDX 31 14 5 15 32 16 37 17 4 18 3 19 38 20 2 21 39 22 1 23 33 24
REMARK SMILES IDX 34 25 35 26 36 27 17 28 18 30 19 31 29 32 20 33 22 34 21 35
REMARK SMILES IDX 23 36 24 37 28 38 25 39 27 40 26 41
REMARK H PARENT 8 11 17 29
ROOT
ATOM      1  C   UNL     1      24.482   5.915  54.194  1.00  0.00     0.042 A 
ATOM      2  C   UNL     1      23.875   6.632  53.152  1.00  0.00     0.014 A 
ATOM      3  C   UNL     1      23.748   6.089  51.873  1.00  0.00     0.006 A 
ATOM      4  C   UNL     1      24.292   4.853  51.560  1.00  0.00    -0.027 A 
ATOM      5  C   UNL     1      24.153   4.276  50.158  1.00  0.00     0.046 C 
ATOM      6  C   UNL     1      24.987   4.180  52.564  1.00  0.00     0.045 A 
ATOM      7  C   UNL     1      25.081   4.731  53.848  1.00  0.00     0.040 A 
ENDROOT
BRANCH   1   8
ATOM      8  C   UNL     1      24.771   6.458  55.536  1.00  0.00     0.255 C 
ATOM      9  O   UNL     1      25.840   7.005  55.655  1.00  0.00    -0.269 OA
ATOM     10  N   UNL     1      23.736   6.510  56.388  1.00  0.00    -0.322 N 
ATOM     11  H   UNL     1      22.844   6.109  56.065  1.00  0.00     0.170 HD
BRANCH  10  12
ATOM     12  C   UNL     1      23.758   7.056  57.665  1.00  0.00     0.044 A 
ATOM     13  C   UNL     1      24.716   6.634  58.620  1.00  0.00     0.052 A 
ATOM     14  C   UNL     1      22.750   7.955  58.079  1.00  0.00     0.039 A 
ATOM     15  C   UNL     1      24.752   7.184  59.904  1.00  0.00     0.049 A 
ATOM     16  C   UNL     1      22.802   8.531  59.381  1.00  0.00     0.060 A 
ATOM     17  C   UNL     1      23.783   8.108  60.281  1.00  0.00     0.039 A 
BRANCH  15  18
ATOM     18  N   UNL     1      25.722   6.804  60.843  1.00  0.00    -0.306 N 
ATOM     19  C   UNL     1      25.955   5.548  61.402  1.00  0.00     0.116 A 
ATOM     20  C   UNL     1      26.584   7.609  61.476  1.00  0.00     0.204 A 
ATOM     21  C   UNL     1      26.935   5.672  62.324  1.00  0.00     0.056 A 
ATOM     22  N   UNL     1      27.338   6.962  62.331  1.00  0.00    -0.242 NA
ATOM     23  C   UNL     1      27.548   4.590  63.179  1.00  0.00     0.068 C 
ENDBRANCH  15  18
BRANCH  16  24
ATOM     24  C   UNL     1      21.757   9.525  59.771  1.00  0.00     0.416 C 
ATOM     25  F   UNL     1      20.726   9.636  58.910  1.00  0.00    -0.166 F 
ATOM     26  F   UNL     1      21.143   9.158  60.890  1.00  0.00    -0.166 F 
ATOM     27  F   UNL     1      22.245  10.781  59.840  1.00  0.00    -0.166 F 
ENDBRANCH  16  24
ENDBRANCH  10  12
ENDBRANCH   1   8
BRANCH   6  28
ATOM     28  N   UNL     1      25.402   2.865  52.320  1.00  0.00    -0.324 N 
ATOM     29  H   UNL     1      24.717   2.096  52.315  1.00  0.00     0.170 HD
BRANCH  28  30
ATOM     30  C   UNL     1      26.754   2.604  52.084  1.00  0.00     0.227 A 
ATOM     31  N   UNL     1      27.590   3.222  51.260  1.00  0.00    -0.221 NA
ATOM     32  N   UNL     1      27.094   1.508  52.810  1.00  0.00    -0.213 NA
ATOM     33  C   UNL     1      28.843   2.735  51.191  1.00  0.00     0.117 A 
ATOM     34  C   UNL     1      28.342   1.042  52.684  1.00  0.00     0.077 A 
ATOM     35  C   UNL     1      29.235   1.647  51.872  1.00  0.00     0.049 A 
BRANCH  34  36
ATOM     36  C   UNL     1      28.675  -0.138  53.525  1.00  0.00     0.019 A 
ATOM     37  C   UNL     1      27.894  -0.492  54.638  1.00  0.00     0.013 A 
ATOM     38  C   UNL     1      29.803  -0.930  53.233  1.00  0.00     0.121 A 
ATOM     39  C   UNL     1      28.268  -1.590  55.402  1.00  0.00     0.021 A 
ATOM     40  N   UNL     1      30.172  -1.984  53.971  1.00  0.00    -0.264 NA
ATOM     41  C   UNL     1      29.393  -2.316  55.014  1.00  0.00     0.111 A 
ENDBRANCH  34  36
ENDBRANCH  28  30
ENDBRANCH   6  28
TORSDOF 7
ENDMDL
