MODEL 1
REMARK VINA RESULT:   -15.153      0.000      0.000
REMARK INTER + INTRA:         -18.419
REMARK INTER:                 -17.241
REMARK INTRA:                  -1.179
REMARK CONF_INDEPENDENT:        2.088
REMARK UNBOUND:                -1.179
REMARK SMILES Cc1cn(-c2cc(NC(=O)c3ccc(C)c(Nc4nccc(-c5cccnc5)n4)c3)cc(C(F)(F)F)c2)cn1
REMARK SMILES IDX 11 1 12 2 13 3 14 4 15 5 16 6 30 7 9 8 10 9 8 10 7 12 6 13
REMARK SMILES IDX 31 14 5 15 32 16 37 17 4 18 3 19 38 20 2 21 39 22 1 23 33 24
REMARK SMILES IDX 34 25 35 26 36 27 17 28 18 30 19 31 29 32 20 33 22 34 21 35
REMARK SMILES IDX 23 36 24 37 28 38 25 39 27 40 26 41
REMARK H PARENT 8 11 17 29
ROOT
ATOM      1  C   UNL     1      27.977   1.856  53.221  1.00  0.00     0.042 A 
ATOM      2  C   UNL     1      27.700   1.350  54.500  1.00  0.00     0.014 A 
ATOM      3  C   UNL     1      28.422   0.280  55.031  1.00  0.00     0.006 A 
ATOM      4  C   UNL     1      29.385  -0.378  54.283  1.00  0.00    -0.027 A 
ATOM      5  C   UNL     1      30.160  -1.548  54.872  1.00  0.00     0.046 C 
ATOM      6  C   UNL     1      29.593   0.054  52.974  1.00  0.00     0.045 A 
ATOM      7  C   UNL     1      28.876   1.146  52.469  1.00  0.00     0.040 A 
ENDROOT
BRANCH   1   8
ATOM      8  C   UNL     1      27.185   2.895  52.535  1.00  0.00     0.255 C 
ATOM      9  O   UNL     1      27.524   3.143  51.404  1.00  0.00    -0.269 OA
ATOM     10  N   UNL     1      26.042   3.261  53.136  1.00  0.00    -0.322 N 
ATOM     11  H   UNL     1      25.842   2.840  54.054  1.00  0.00     0.170 HD
BRANCH  10  12
ATOM     12  C   UNL     1      25.105   4.154  52.632  1.00  0.00     0.044 A 
ATOM     13  C   UNL     1      24.180   4.798  53.491  1.00  0.00     0.052 A 
ATOM     14  C   UNL     1      24.974   4.348  51.240  1.00  0.00     0.039 A 
ATOM     15  C   UNL     1      23.240   5.706  52.995  1.00  0.00     0.049 A 
ATOM     16  C   UNL     1      24.031   5.290  50.739  1.00  0.00     0.060 A 
ATOM     17  C   UNL     1      23.158   5.927  51.624  1.00  0.00     0.039 A 
BRANCH  15  18
ATOM     18  N   UNL     1      22.348   6.381  53.841  1.00  0.00    -0.306 N 
ATOM     19  C   UNL     1      22.039   6.120  55.175  1.00  0.00     0.116 A 
ATOM     20  C   UNL     1      21.524   7.381  53.505  1.00  0.00     0.204 A 
ATOM     21  C   UNL     1      21.063   6.972  55.557  1.00  0.00     0.056 A 
ATOM     22  N   UNL     1      20.778   7.774  54.507  1.00  0.00    -0.242 NA
ATOM     23  C   UNL     1      20.410   7.089  56.913  1.00  0.00     0.068 C 
ENDBRANCH  15  18
BRANCH  16  24
ATOM     24  C   UNL     1      23.955   5.521  49.264  1.00  0.00     0.416 C 
ATOM     25  F   UNL     1      24.636   6.596  48.820  1.00  0.00    -0.166 F 
ATOM     26  F   UNL     1      24.537   4.532  48.596  1.00  0.00    -0.166 F 
ATOM     27  F   UNL     1      22.694   5.753  48.845  1.00  0.00    -0.166 F 
ENDBRANCH  16  24
ENDBRANCH  10  12
ENDBRANCH   1   8
BRANCH   6  28
ATOM     28  N   UNL     1      30.669  -0.486  52.257  1.00  0.00    -0.324 N 
ATOM     29  H   UNL     1      30.525  -1.294  51.636  1.00  0.00     0.170 HD
BRANCH  28  30
ATOM     30  C   UNL     1      31.938   0.081  52.392  1.00  0.00     0.227 A 
ATOM     31  N   UNL     1      32.337   1.042  53.215  1.00  0.00    -0.221 NA
ATOM     32  N   UNL     1      32.739  -0.474  51.447  1.00  0.00    -0.213 NA
ATOM     33  C   UNL     1      33.620   1.438  53.107  1.00  0.00     0.117 A 
ATOM     34  C   UNL     1      33.997  -0.026  51.356  1.00  0.00     0.077 A 
ATOM     35  C   UNL     1      34.455   0.938  52.183  1.00  0.00     0.049 A 
BRANCH  34  36
ATOM     36  C   UNL     1      34.843  -0.690  50.331  1.00  0.00     0.019 A 
ATOM     37  C   UNL     1      36.145  -0.245  50.051  1.00  0.00     0.013 A 
ATOM     38  C   UNL     1      34.348  -1.784  49.594  1.00  0.00     0.121 A 
ATOM     39  C   UNL     1      36.881  -0.888  49.064  1.00  0.00     0.021 A 
ATOM     40  N   UNL     1      35.050  -2.403  48.636  1.00  0.00    -0.264 NA
ATOM     41  C   UNL     1      36.302  -1.973  48.407  1.00  0.00     0.111 A 
ENDBRANCH  34  36
ENDBRANCH  28  30
ENDBRANCH   6  28
TORSDOF 7
ENDMDL
MODEL 2
REMARK VINA RESULT:   -14.148      2.213      3.689
REMARK INTER + INTRA:         -17.458
REMARK INTER:                 -16.236
REMARK INTRA:                  -1.222
REMARK CONF_INDEPENDENT:        2.088
REMARK UNBOUND:                -1.222
REMARK SMILES Cc1cn(-c2cc(NC(=O)c3ccc(C)c(Nc4nccc(-c5cccnc5)n4)c3)cc(C(F)(F)F)c2)cn1
REMARK SMILES IDX 11 1 12 2 13 3 14 4 15 5 16 6 30 7 9 8 10 9 8 10 7 12 6 13
REMARK SMILES IDX 31 14 5 15 32 16 37 17 4 18 3 19 38 20 2 21 39 22 1 23 33 24
REMARK SMILES IDX 34 25 35 26 36 27 17 28 18 30 19 31 29 32 20 33 22 34 21 35
REMARK SMILES IDX 23 36 24 37 28 38 25 39 27 40 26 41
REMARK H PARENT 8 11 17 29
ROOT
ATOM      1  C   UNL     1      28.280   1.583  53.639  1.00  0.00     0.042 A 
ATOM      2  C   UNL     1      28.058   1.007  54.899  1.00  0.00     0.014 A 
ATOM      3  C   UNL     1      28.802  -0.089  55.339  1.00  0.00     0.006 A 
ATOM      4  C   UNL     1      29.733  -0.702  54.516  1.00  0.00    -0.027 A 
ATOM      5  C   UNL     1      30.532  -1.901  55.007  1.00  0.00     0.046 C 
ATOM      6  C   UNL     1      29.885  -0.198  53.225  1.00  0.00     0.045 A 
ATOM      7  C   UNL     1      29.146   0.917  52.811  1.00  0.00     0.040 A 
ENDROOT
BRANCH   1   8
ATOM      8  C   UNL     1      27.458   2.656  53.046  1.00  0.00     0.255 C 
ATOM      9  O   UNL     1      27.924   3.183  52.065  1.00  0.00    -0.269 OA
ATOM     10  N   UNL     1      26.198   2.754  53.496  1.00  0.00    -0.322 N 
ATOM     11  H   UNL     1      25.925   2.122  54.262  1.00  0.00     0.170 HD
BRANCH  10  12
ATOM     12  C   UNL     1      25.229   3.630  53.023  1.00  0.00     0.044 A 
ATOM     13  C   UNL     1      25.151   3.955  51.646  1.00  0.00     0.052 A 
ATOM     14  C   UNL     1      24.377   4.309  53.921  1.00  0.00     0.039 A 
ATOM     15  C   UNL     1      24.173   4.827  51.160  1.00  0.00     0.049 A 
ATOM     16  C   UNL     1      23.367   5.180  53.422  1.00  0.00     0.060 A 
ATOM     17  C   UNL     1      23.306   5.449  52.052  1.00  0.00     0.039 A 
BRANCH  15  18
ATOM     18  N   UNL     1      24.062   5.122  49.793  1.00  0.00    -0.306 N 
ATOM     19  C   UNL     1      23.468   6.225  49.181  1.00  0.00     0.116 A 
ATOM     20  C   UNL     1      24.431   4.340  48.772  1.00  0.00     0.204 A 
ATOM     21  C   UNL     1      23.521   6.044  47.844  1.00  0.00     0.056 A 
ATOM     22  N   UNL     1      24.156   4.875  47.607  1.00  0.00    -0.242 NA
ATOM     23  C   UNL     1      23.025   6.972  46.761  1.00  0.00     0.068 C 
ENDBRANCH  15  18
BRANCH  16  24
ATOM     24  C   UNL     1      22.439   5.840  54.390  1.00  0.00     0.416 C 
ATOM     25  F   UNL     1      21.658   4.997  55.095  1.00  0.00    -0.166 F 
ATOM     26  F   UNL     1      23.114   6.458  55.352  1.00  0.00    -0.166 F 
ATOM     27  F   UNL     1      21.552   6.652  53.779  1.00  0.00    -0.166 F 
ENDBRANCH  16  24
ENDBRANCH  10  12
ENDBRANCH   1   8
BRANCH   6  28
ATOM     28  N   UNL     1      30.929  -0.695  52.435  1.00  0.00    -0.324 N 
ATOM     29  H   UNL     1      30.776  -1.510  51.824  1.00  0.00     0.170 HD
BRANCH  28  30
ATOM     30  C   UNL     1      32.180  -0.076  52.480  1.00  0.00     0.227 A 
ATOM     31  N   UNL     1      32.588   0.919  53.258  1.00  0.00    -0.221 NA
ATOM     32  N   UNL     1      32.946  -0.621  51.500  1.00  0.00    -0.213 NA
ATOM     33  C   UNL     1      33.845   1.362  53.064  1.00  0.00     0.117 A 
ATOM     34  C   UNL     1      34.176  -0.126  51.325  1.00  0.00     0.077 A 
ATOM     35  C   UNL     1      34.644   0.874  52.103  1.00  0.00     0.049 A 
BRANCH  34  36
ATOM     36  C   UNL     1      34.986  -0.780  50.264  1.00  0.00     0.019 A 
ATOM     37  C   UNL     1      36.361  -0.528  50.128  1.00  0.00     0.013 A 
ATOM     38  C   UNL     1      34.385  -1.667  49.350  1.00  0.00     0.121 A 
ATOM     39  C   UNL     1      37.062  -1.148  49.102  1.00  0.00     0.021 A 
ATOM     40  N   UNL     1      35.055  -2.261  48.354  1.00  0.00    -0.264 NA
ATOM     41  C   UNL     1      36.373  -2.022  48.263  1.00  0.00     0.111 A 
ENDBRANCH  34  36
ENDBRANCH  28  30
ENDBRANCH   6  28
TORSDOF 7
ENDMDL
MODEL 3
REMARK VINA RESULT:   -13.110      1.146      1.783
REMARK INTER + INTRA:         -16.347
REMARK INTER:                 -15.198
REMARK INTRA:                  -1.149
REMARK CONF_INDEPENDENT:        2.088
REMARK UNBOUND:                -1.149
REMARK SMILES Cc1cn(-c2cc(NC(=O)c3ccc(C)c(Nc4nccc(-c5cccnc5)n4)c3)cc(C(F)(F)F)c2)cn1
REMARK SMILES IDX 11 1 12 2 13 3 14 4 15 5 16 6 30 7 9 8 10 9 8 10 7 12 6 13
REMARK SMILES IDX 31 14 5 15 32 16 37 17 4 18 3 19 38 20 2 21 39 22 1 23 33 24
REMARK SMILES IDX 34 25 35 26 36 27 17 28 18 30 19 31 29 32 20 33 22 34 21 35
REMARK SMILES IDX 23 36 24 37 28 38 25 39 27 40 26 41
REMARK H PARENT 8 11 17 29
ROOT
ATOM      1  C   UNL     1      28.418   1.602  53.081  1.00  0.00     0.042 A 
ATOM      2  C   UNL     1      27.973   0.749  54.102  1.00  0.00     0.014 A 
ATOM      3  C   UNL     1      28.785  -0.267  54.607  1.00  0.00     0.006 A 
ATOM      4  C   UNL     1      30.032  -0.527  54.062  1.00  0.00    -0.027 A 
ATOM      5  C   UNL     1      30.905  -1.644  54.618  1.00  0.00     0.046 C 
ATOM      6  C   UNL     1      30.439   0.250  52.979  1.00  0.00     0.045 A 
ATOM      7  C   UNL     1      29.619   1.282  52.503  1.00  0.00     0.040 A 
ENDROOT
BRANCH   1   8
ATOM      8  C   UNL     1      27.585   2.615  52.404  1.00  0.00     0.255 C 
ATOM      9  O   UNL     1      27.904   2.875  51.270  1.00  0.00    -0.269 OA
ATOM     10  N   UNL     1      26.437   2.942  53.017  1.00  0.00    -0.322 N 
ATOM     11  H   UNL     1      26.260   2.515  53.937  1.00  0.00     0.170 HD
BRANCH  10  12
ATOM     12  C   UNL     1      25.466   3.805  52.524  1.00  0.00     0.044 A 
ATOM     13  C   UNL     1      24.597   4.499  53.402  1.00  0.00     0.052 A 
ATOM     14  C   UNL     1      25.244   3.917  51.134  1.00  0.00     0.039 A 
ATOM     15  C   UNL     1      23.624   5.377  52.916  1.00  0.00     0.049 A 
ATOM     16  C   UNL     1      24.267   4.828  50.641  1.00  0.00     0.060 A 
ATOM     17  C   UNL     1      23.452   5.516  51.542  1.00  0.00     0.039 A 
BRANCH  15  18
ATOM     18  N   UNL     1      22.787   6.101  53.778  1.00  0.00    -0.306 N 
ATOM     19  C   UNL     1      22.338   5.761  55.052  1.00  0.00     0.116 A 
ATOM     20  C   UNL     1      22.161   7.252  53.506  1.00  0.00     0.204 A 
ATOM     21  C   UNL     1      21.482   6.720  55.468  1.00  0.00     0.056 A 
ATOM     22  N   UNL     1      21.410   7.661  54.500  1.00  0.00    -0.242 NA
ATOM     23  C   UNL     1      20.753   6.806  56.787  1.00  0.00     0.068 C 
ENDBRANCH  15  18
BRANCH  16  24
ATOM     24  C   UNL     1      24.094   4.971  49.164  1.00  0.00     0.416 C 
ATOM     25  F   UNL     1      24.396   3.870  48.446  1.00  0.00    -0.166 F 
ATOM     26  F   UNL     1      22.819   5.163  48.849  1.00  0.00    -0.166 F 
ATOM     27  F   UNL     1      24.903   5.916  48.642  1.00  0.00    -0.166 F 
ENDBRANCH  16  24
ENDBRANCH  10  12
ENDBRANCH   1   8
BRANCH   6  28
ATOM     28  N   UNL     1      31.755   0.116  52.519  1.00  0.00    -0.324 N 
ATOM     29  H   UNL     1      32.533   0.552  53.035  1.00  0.00     0.170 HD
BRANCH  28  30
ATOM     30  C   UNL     1      32.005  -0.614  51.355  1.00  0.00     0.227 A 
ATOM     31  N   UNL     1      31.149  -1.282  50.591  1.00  0.00    -0.221 NA
ATOM     32  N   UNL     1      33.346  -0.607  51.144  1.00  0.00    -0.213 NA
ATOM     33  C   UNL     1      31.666  -1.944  49.539  1.00  0.00     0.117 A 
ATOM     34  C   UNL     1      33.816  -1.305  50.104  1.00  0.00     0.077 A 
ATOM     35  C   UNL     1      32.984  -1.986  49.287  1.00  0.00     0.049 A 
BRANCH  34  36
ATOM     36  C   UNL     1      35.286  -1.236  49.895  1.00  0.00     0.019 A 
ATOM     37  C   UNL     1      35.955  -2.152  49.067  1.00  0.00     0.013 A 
ATOM     38  C   UNL     1      36.055  -0.249  50.542  1.00  0.00     0.121 A 
ATOM     39  C   UNL     1      37.334  -2.055  48.929  1.00  0.00     0.021 A 
ATOM     40  N   UNL     1      37.385  -0.156  50.420  1.00  0.00    -0.264 NA
ATOM     41  C   UNL     1      37.996  -1.028  49.601  1.00  0.00     0.111 A 
ENDBRANCH  34  36
ENDBRANCH  28  30
ENDBRANCH   6  28
TORSDOF 7
ENDMDL
MODEL 4
REMARK VINA RESULT:   -11.548      3.742     11.772
REMARK INTER + INTRA:         -14.794
REMARK INTER:                 -13.636
REMARK INTRA:                  -1.158
REMARK CONF_INDEPENDENT:        2.088
REMARK UNBOUND:                -1.158
REMARK SMILES Cc1cn(-c2cc(NC(=O)c3ccc(C)c(Nc4nccc(-c5cccnc5)n4)c3)cc(C(F)(F)F)c2)cn1
REMARK SMILES IDX 11 1 12 2 13 3 14 4 15 5 16 6 30 7 9 8 10 9 8 10 7 12 6 13
REMARK SMILES IDX 31 14 5 15 32 16 37 17 4 18 3 19 38 20 2 21 39 22 1 23 33 24
REMARK SMILES IDX 34 25 35 26 36 27 17 28 18 30 19 31 29 32 20 33 22 34 21 35
REMARK SMILES IDX 23 36 24 37 28 38 25 39 27 40 26 41
REMARK H PARENT 8 11 17 29
ROOT
ATOM      1  C   UNL     1      25.914   3.805  51.917  1.00  0.00     0.042 A 
ATOM      2  C   UNL     1      25.285   4.249  50.744  1.00  0.00     0.014 A 
ATOM      3  C   UNL     1      24.158   5.071  50.791  1.00  0.00     0.006 A 
ATOM      4  C   UNL     1      23.568   5.414  51.997  1.00  0.00    -0.027 A 
ATOM      5  C   UNL     1      22.334   6.305  52.033  1.00  0.00     0.046 C 
ATOM      6  C   UNL     1      24.128   4.890  53.162  1.00  0.00     0.045 A 
ATOM      7  C   UNL     1      25.273   4.087  53.095  1.00  0.00     0.040 A 
ENDROOT
BRANCH   1   8
ATOM      8  C   UNL     1      27.027   2.836  51.961  1.00  0.00     0.255 C 
ATOM      9  O   UNL     1      27.736   2.816  50.985  1.00  0.00    -0.269 OA
ATOM     10  N   UNL     1      27.278   2.277  53.155  1.00  0.00    -0.322 N 
ATOM     11  H   UNL     1      26.638   2.515  53.926  1.00  0.00     0.170 HD
BRANCH  10  12
ATOM     12  C   UNL     1      28.321   1.408  53.446  1.00  0.00     0.044 A 
ATOM     13  C   UNL     1      29.628   1.651  52.957  1.00  0.00     0.052 A 
ATOM     14  C   UNL     1      28.077   0.199  54.134  1.00  0.00     0.039 A 
ATOM     15  C   UNL     1      30.686   0.787  53.253  1.00  0.00     0.049 A 
ATOM     16  C   UNL     1      29.161  -0.669  54.453  1.00  0.00     0.060 A 
ATOM     17  C   UNL     1      30.440  -0.375  53.977  1.00  0.00     0.039 A 
BRANCH  15  18
ATOM     18  N   UNL     1      31.993   1.041  52.809  1.00  0.00    -0.306 N 
ATOM     19  C   UNL     1      32.626   0.596  51.650  1.00  0.00     0.116 A 
ATOM     20  C   UNL     1      32.949   1.705  53.469  1.00  0.00     0.204 A 
ATOM     21  C   UNL     1      33.909   1.018  51.681  1.00  0.00     0.056 A 
ATOM     22  N   UNL     1      34.082   1.737  52.812  1.00  0.00    -0.242 NA
ATOM     23  C   UNL     1      34.983   0.802  50.642  1.00  0.00     0.068 C 
ENDBRANCH  15  18
BRANCH  16  24
ATOM     24  C   UNL     1      28.883  -1.912  55.235  1.00  0.00     0.416 C 
ATOM     25  F   UNL     1      28.051  -2.787  54.637  1.00  0.00    -0.166 F 
ATOM     26  F   UNL     1      29.985  -2.638  55.384  1.00  0.00    -0.166 F 
ATOM     27  F   UNL     1      28.274  -1.653  56.410  1.00  0.00    -0.166 F 
ENDBRANCH  16  24
ENDBRANCH  10  12
ENDBRANCH   1   8
BRANCH   6  28
ATOM     28  N   UNL     1      23.650   5.351  54.396  1.00  0.00    -0.324 N 
ATOM     29  H   UNL     1      22.693   5.125  54.699  1.00  0.00     0.170 HD
BRANCH  28  30
ATOM     30  C   UNL     1      24.484   6.118  55.211  1.00  0.00     0.227 A 
ATOM     31  N   UNL     1      25.781   6.366  55.078  1.00  0.00    -0.221 NA
ATOM     32  N   UNL     1      23.748   6.541  56.271  1.00  0.00    -0.213 NA
ATOM     33  C   UNL     1      26.358   7.110  56.041  1.00  0.00     0.117 A 
ATOM     34  C   UNL     1      24.372   7.250  57.219  1.00  0.00     0.077 A 
ATOM     35  C   UNL     1      25.687   7.543  57.120  1.00  0.00     0.049 A 
BRANCH  34  36
ATOM     36  C   UNL     1      23.516   7.718  58.340  1.00  0.00     0.019 A 
ATOM     37  C   UNL     1      23.826   8.878  59.068  1.00  0.00     0.013 A 
ATOM     38  C   UNL     1      22.367   6.993  58.714  1.00  0.00     0.121 A 
ATOM     39  C   UNL     1      23.003   9.254  60.122  1.00  0.00     0.021 A 
ATOM     40  N   UNL     1      21.575   7.346  59.734  1.00  0.00    -0.264 NA
ATOM     41  C   UNL     1      21.880   8.473  60.396  1.00  0.00     0.111 A 
ENDBRANCH  34  36
ENDBRANCH  28  30
ENDBRANCH   6  28
TORSDOF 7
ENDMDL
MODEL 5
REMARK VINA RESULT:   -11.451      4.168     11.141
REMARK INTER + INTRA:         -14.745
REMARK INTER:                 -13.539
REMARK INTRA:                  -1.205
REMARK CONF_INDEPENDENT:        2.088
REMARK UNBOUND:                -1.205
REMARK SMILES Cc1cn(-c2cc(NC(=O)c3ccc(C)c(Nc4nccc(-c5cccnc5)n4)c3)cc(C(F)(F)F)c2)cn1
REMARK SMILES IDX 11 1 12 2 13 3 14 4 15 5 16 6 30 7 9 8 10 9 8 10 7 12 6 13
REMARK SMILES IDX 31 14 5 15 32 16 37 17 4 18 3 19 38 20 2 21 39 22 1 23 33 24
REMARK SMILES IDX 34 25 35 26 36 27 17 28 18 30 19 31 29 32 20 33 22 34 21 35
REMARK SMILES IDX 23 36 24 37 28 38 25 39 27 40 26 41
REMARK H PARENT 8 11 17 29
ROOT
ATOM      1  C   UNL     1      25.765   3.968  52.202  1.00  0.00     0.042 A 
ATOM      2  C   UNL     1      25.183   4.490  51.037  1.00  0.00     0.014 A 
ATOM      3  C   UNL     1      24.077   5.339  51.094  1.00  0.00     0.006 A 
ATOM      4  C   UNL     1      23.459   5.634  52.299  1.00  0.00    -0.027 A 
ATOM      5  C   UNL     1      22.249   6.555  52.346  1.00  0.00     0.046 C 
ATOM      6  C   UNL     1      23.969   5.035  53.450  1.00  0.00     0.045 A 
ATOM      7  C   UNL     1      25.096   4.206  53.374  1.00  0.00     0.040 A 
ENDROOT
BRANCH   1   8
ATOM      8  C   UNL     1      26.851   2.968  52.228  1.00  0.00     0.255 C 
ATOM      9  O   UNL     1      27.490   2.871  51.209  1.00  0.00    -0.269 OA
ATOM     10  N   UNL     1      27.167   2.469  53.432  1.00  0.00    -0.322 N 
ATOM     11  H   UNL     1      26.588   2.769  54.229  1.00  0.00     0.170 HD
BRANCH  10  12
ATOM     12  C   UNL     1      28.203   1.584  53.702  1.00  0.00     0.044 A 
ATOM     13  C   UNL     1      29.524   1.858  53.272  1.00  0.00     0.052 A 
ATOM     14  C   UNL     1      27.940   0.334  54.305  1.00  0.00     0.039 A 
ATOM     15  C   UNL     1      30.575   0.979  53.548  1.00  0.00     0.049 A 
ATOM     16  C   UNL     1      29.015  -0.551  54.605  1.00  0.00     0.060 A 
ATOM     17  C   UNL     1      30.309  -0.227  54.189  1.00  0.00     0.039 A 
BRANCH  15  18
ATOM     18  N   UNL     1      31.894   1.261  53.163  1.00  0.00    -0.306 N 
ATOM     19  C   UNL     1      32.644   0.704  52.129  1.00  0.00     0.116 A 
ATOM     20  C   UNL     1      32.752   2.080  53.784  1.00  0.00     0.204 A 
ATOM     21  C   UNL     1      33.892   1.218  52.187  1.00  0.00     0.056 A 
ATOM     22  N   UNL     1      33.930   2.101  53.209  1.00  0.00    -0.242 NA
ATOM     23  C   UNL     1      35.056   0.935  51.269  1.00  0.00     0.068 C 
ENDBRANCH  15  18
BRANCH  16  24
ATOM     24  C   UNL     1      28.717  -1.840  55.298  1.00  0.00     0.416 C 
ATOM     25  F   UNL     1      27.863  -2.654  54.644  1.00  0.00    -0.166 F 
ATOM     26  F   UNL     1      29.804  -2.597  55.387  1.00  0.00    -0.166 F 
ATOM     27  F   UNL     1      28.119  -1.654  56.493  1.00  0.00    -0.166 F 
ENDBRANCH  16  24
ENDBRANCH  10  12
ENDBRANCH   1   8
BRANCH   6  28
ATOM     28  N   UNL     1      23.467   5.443  54.692  1.00  0.00    -0.324 N 
ATOM     29  H   UNL     1      22.725   4.899  55.156  1.00  0.00     0.170 HD
BRANCH  28  30
ATOM     30  C   UNL     1      23.979   6.593  55.296  1.00  0.00     0.227 A 
ATOM     31  N   UNL     1      24.014   7.834  54.828  1.00  0.00    -0.221 NA
ATOM     32  N   UNL     1      24.541   6.223  56.476  1.00  0.00    -0.213 NA
ATOM     33  C   UNL     1      24.611   8.757  55.605  1.00  0.00     0.117 A 
ATOM     34  C   UNL     1      25.151   7.169  57.198  1.00  0.00     0.077 A 
ATOM     35  C   UNL     1      25.197   8.450  56.773  1.00  0.00     0.049 A 
BRANCH  34  36
ATOM     36  C   UNL     1      25.719   6.721  58.496  1.00  0.00     0.019 A 
ATOM     37  C   UNL     1      24.901   6.236  59.529  1.00  0.00     0.013 A 
ATOM     38  C   UNL     1      27.107   6.786  58.730  1.00  0.00     0.121 A 
ATOM     39  C   UNL     1      25.484   5.855  60.730  1.00  0.00     0.021 A 
ATOM     40  N   UNL     1      27.674   6.427  59.889  1.00  0.00    -0.264 NA
ATOM     41  C   UNL     1      26.871   5.943  60.850  1.00  0.00     0.111 A 
ENDBRANCH  34  36
ENDBRANCH  28  30
ENDBRANCH   6  28
TORSDOF 7
ENDMDL
MODEL 6
REMARK VINA RESULT:   -11.197      4.746      8.424
REMARK INTER + INTRA:         -14.291
REMARK INTER:                 -13.285
REMARK INTRA:                  -1.005
REMARK CONF_INDEPENDENT:        2.088
REMARK UNBOUND:                -1.005
REMARK SMILES Cc1cn(-c2cc(NC(=O)c3ccc(C)c(Nc4nccc(-c5cccnc5)n4)c3)cc(C(F)(F)F)c2)cn1
REMARK SMILES IDX 11 1 12 2 13 3 14 4 15 5 16 6 30 7 9 8 10 9 8 10 7 12 6 13
REMARK SMILES IDX 31 14 5 15 32 16 37 17 4 18 3 19 38 20 2 21 39 22 1 23 33 24
REMARK SMILES IDX 34 25 35 26 36 27 17 28 18 30 19 31 29 32 20 33 22 34 21 35
REMARK SMILES IDX 23 36 24 37 28 38 25 39 27 40 26 41
REMARK H PARENT 8 11 17 29
ROOT
ATOM      1  C   UNL     1      34.441  -0.733  50.763  1.00  0.00     0.042 A 
ATOM      2  C   UNL     1      34.561  -2.021  50.219  1.00  0.00     0.014 A 
ATOM      3  C   UNL     1      35.579  -2.338  49.318  1.00  0.00     0.006 A 
ATOM      4  C   UNL     1      36.460  -1.371  48.861  1.00  0.00    -0.027 A 
ATOM      5  C   UNL     1      37.561  -1.730  47.873  1.00  0.00     0.046 C 
ATOM      6  C   UNL     1      36.282  -0.067  49.319  1.00  0.00     0.045 A 
ATOM      7  C   UNL     1      35.270   0.226  50.242  1.00  0.00     0.040 A 
ENDROOT
BRANCH   1   8
ATOM      8  C   UNL     1      33.327  -0.279  51.618  1.00  0.00     0.255 C 
ATOM      9  O   UNL     1      33.443   0.832  52.074  1.00  0.00    -0.269 OA
ATOM     10  N   UNL     1      32.216  -1.030  51.590  1.00  0.00    -0.322 N 
ATOM     11  H   UNL     1      32.249  -1.894  51.031  1.00  0.00     0.170 HD
BRANCH  10  12
ATOM     12  C   UNL     1      31.024  -0.749  52.247  1.00  0.00     0.044 A 
ATOM     13  C   UNL     1      30.217   0.347  51.853  1.00  0.00     0.052 A 
ATOM     14  C   UNL     1      30.651  -1.476  53.399  1.00  0.00     0.039 A 
ATOM     15  C   UNL     1      29.012   0.632  52.501  1.00  0.00     0.049 A 
ATOM     16  C   UNL     1      29.412  -1.198  54.044  1.00  0.00     0.060 A 
ATOM     17  C   UNL     1      28.632  -0.127  53.603  1.00  0.00     0.039 A 
BRANCH  15  18
ATOM     18  N   UNL     1      28.186   1.689  52.091  1.00  0.00    -0.306 N 
ATOM     19  C   UNL     1      27.120   2.280  52.767  1.00  0.00     0.116 A 
ATOM     20  C   UNL     1      28.196   2.298  50.900  1.00  0.00     0.204 A 
ATOM     21  C   UNL     1      26.563   3.202  51.952  1.00  0.00     0.056 A 
ATOM     22  N   UNL     1      27.271   3.222  50.801  1.00  0.00    -0.242 NA
ATOM     23  C   UNL     1      25.395   4.114  52.243  1.00  0.00     0.068 C 
ENDBRANCH  15  18
BRANCH  16  24
ATOM     24  C   UNL     1      29.013  -2.022  55.225  1.00  0.00     0.416 C 
ATOM     25  F   UNL     1      28.198  -3.059  54.947  1.00  0.00    -0.166 F 
ATOM     26  F   UNL     1      30.064  -2.634  55.757  1.00  0.00    -0.166 F 
ATOM     27  F   UNL     1      28.315  -1.311  56.135  1.00  0.00    -0.166 F 
ENDBRANCH  16  24
ENDBRANCH  10  12
ENDBRANCH   1   8
BRANCH   6  28
ATOM     28  N   UNL     1      37.255   0.890  49.000  1.00  0.00    -0.324 N 
ATOM     29  H   UNL     1      36.977   1.812  48.637  1.00  0.00     0.170 HD
BRANCH  28  30
ATOM     30  C   UNL     1      38.605   0.583  49.181  1.00  0.00     0.227 A 
ATOM     31  N   UNL     1      39.187  -0.052  50.191  1.00  0.00    -0.221 NA
ATOM     32  N   UNL     1      39.293   1.127  48.145  1.00  0.00    -0.213 NA
ATOM     33  C   UNL     1      40.526  -0.178  50.136  1.00  0.00     0.117 A 
ATOM     34  C   UNL     1      40.626   1.004  48.150  1.00  0.00     0.077 A 
ATOM     35  C   UNL     1      41.263   0.352  49.147  1.00  0.00     0.049 A 
BRANCH  34  36
ATOM     36  C   UNL     1      41.329   1.586  46.978  1.00  0.00     0.019 A 
ATOM     37  C   UNL     1      40.649   2.349  46.015  1.00  0.00     0.013 A 
ATOM     38  C   UNL     1      42.709   1.371  46.793  1.00  0.00     0.121 A 
ATOM     39  C   UNL     1      41.353   2.847  44.927  1.00  0.00     0.021 A 
ATOM     40  N   UNL     1      43.392   1.842  45.741  1.00  0.00    -0.264 NA
ATOM     41  C   UNL     1      42.721   2.590  44.850  1.00  0.00     0.111 A 
ENDBRANCH  34  36
ENDBRANCH  28  30
ENDBRANCH   6  28
TORSDOF 7
ENDMDL
MODEL 7
REMARK VINA RESULT:   -11.189      2.803      4.596
REMARK INTER + INTRA:         -14.488
REMARK INTER:                 -13.277
REMARK INTRA:                  -1.211
REMARK CONF_INDEPENDENT:        2.088
REMARK UNBOUND:                -1.211
REMARK SMILES Cc1cn(-c2cc(NC(=O)c3ccc(C)c(Nc4nccc(-c5cccnc5)n4)c3)cc(C(F)(F)F)c2)cn1
REMARK SMILES IDX 11 1 12 2 13 3 14 4 15 5 16 6 30 7 9 8 10 9 8 10 7 12 6 13
REMARK SMILES IDX 31 14 5 15 32 16 37 17 4 18 3 19 38 20 2 21 39 22 1 23 33 24
REMARK SMILES IDX 34 25 35 26 36 27 17 28 18 30 19 31 29 32 20 33 22 34 21 35
REMARK SMILES IDX 23 36 24 37 28 38 25 39 27 40 26 41
REMARK H PARENT 8 11 17 29
ROOT
ATOM      1  C   UNL     1      29.695   1.288  52.542  1.00  0.00     0.042 A 
ATOM      2  C   UNL     1      30.326   1.191  53.791  1.00  0.00     0.014 A 
ATOM      3  C   UNL     1      31.683   0.885  53.898  1.00  0.00     0.006 A 
ATOM      4  C   UNL     1      32.442   0.582  52.779  1.00  0.00    -0.027 A 
ATOM      5  C   UNL     1      33.920   0.242  52.911  1.00  0.00     0.046 C 
ATOM      6  C   UNL     1      31.796   0.575  51.543  1.00  0.00     0.045 A 
ATOM      7  C   UNL     1      30.439   0.909  51.455  1.00  0.00     0.040 A 
ENDROOT
BRANCH   1   8
ATOM      8  C   UNL     1      28.245   1.481  52.342  1.00  0.00     0.255 C 
ATOM      9  O   UNL     1      27.556   0.522  52.590  1.00  0.00    -0.269 OA
ATOM     10  N   UNL     1      27.836   2.745  52.157  1.00  0.00    -0.322 N 
ATOM     11  H   UNL     1      28.566   3.469  52.103  1.00  0.00     0.170 HD
BRANCH  10  12
ATOM     12  C   UNL     1      26.518   3.166  52.033  1.00  0.00     0.044 A 
ATOM     13  C   UNL     1      25.748   2.819  50.895  1.00  0.00     0.052 A 
ATOM     14  C   UNL     1      25.955   4.050  52.979  1.00  0.00     0.039 A 
ATOM     15  C   UNL     1      24.419   3.230  50.765  1.00  0.00     0.049 A 
ATOM     16  C   UNL     1      24.593   4.450  52.856  1.00  0.00     0.060 A 
ATOM     17  C   UNL     1      23.861   4.059  51.733  1.00  0.00     0.039 A 
BRANCH  15  18
ATOM     18  N   UNL     1      23.635   2.856  49.663  1.00  0.00    -0.306 N 
ATOM     19  C   UNL     1      22.929   1.673  49.452  1.00  0.00     0.116 A 
ATOM     20  C   UNL     1      23.477   3.540  48.524  1.00  0.00     0.204 A 
ATOM     21  C   UNL     1      22.391   1.719  48.214  1.00  0.00     0.056 A 
ATOM     22  N   UNL     1      22.718   2.908  47.662  1.00  0.00    -0.242 NA
ATOM     23  C   UNL     1      21.526   0.682  47.538  1.00  0.00     0.068 C 
ENDBRANCH  15  18
BRANCH  16  24
ATOM     24  C   UNL     1      24.005   5.338  53.904  1.00  0.00     0.416 C 
ATOM     25  F   UNL     1      23.351   6.419  53.433  1.00  0.00    -0.166 F 
ATOM     26  F   UNL     1      23.048   4.711  54.578  1.00  0.00    -0.166 F 
ATOM     27  F   UNL     1      24.944   5.867  54.714  1.00  0.00    -0.166 F 
ENDBRANCH  16  24
ENDBRANCH  10  12
ENDBRANCH   1   8
BRANCH   6  28
ATOM     28  N   UNL     1      32.572   0.432  50.386  1.00  0.00    -0.324 N 
ATOM     29  H   UNL     1      32.739   1.241  49.770  1.00  0.00     0.170 HD
BRANCH  28  30
ATOM     30  C   UNL     1      33.118  -0.814  50.074  1.00  0.00     0.227 A 
ATOM     31  N   UNL     1      32.526  -2.002  50.058  1.00  0.00    -0.221 NA
ATOM     32  N   UNL     1      34.445  -0.638  49.848  1.00  0.00    -0.213 NA
ATOM     33  C   UNL     1      33.302  -3.061  49.761  1.00  0.00     0.117 A 
ATOM     34  C   UNL     1      35.182  -1.725  49.589  1.00  0.00     0.077 A 
ATOM     35  C   UNL     1      34.622  -2.953  49.544  1.00  0.00     0.049 A 
BRANCH  34  36
ATOM     36  C   UNL     1      36.621  -1.475  49.315  1.00  0.00     0.019 A 
ATOM     37  C   UNL     1      37.355  -2.292  48.440  1.00  0.00     0.013 A 
ATOM     38  C   UNL     1      37.295  -0.410  49.944  1.00  0.00     0.121 A 
ATOM     39  C   UNL     1      38.704  -2.026  48.242  1.00  0.00     0.021 A 
ATOM     40  N   UNL     1      38.597  -0.154  49.763  1.00  0.00    -0.264 NA
ATOM     41  C   UNL     1      39.269  -0.935  48.902  1.00  0.00     0.111 A 
ENDBRANCH  34  36
ENDBRANCH  28  30
ENDBRANCH   6  28
TORSDOF 7
ENDMDL
MODEL 8
REMARK VINA RESULT:   -11.011      3.869     11.693
REMARK INTER + INTRA:         -14.214
REMARK INTER:                 -13.099
REMARK INTRA:                  -1.115
REMARK CONF_INDEPENDENT:        2.088
REMARK UNBOUND:                -1.115
REMARK SMILES Cc1cn(-c2cc(NC(=O)c3ccc(C)c(Nc4nccc(-c5cccnc5)n4)c3)cc(C(F)(F)F)c2)cn1
REMARK SMILES IDX 11 1 12 2 13 3 14 4 15 5 16 6 30 7 9 8 10 9 8 10 7 12 6 13
REMARK SMILES IDX 31 14 5 15 32 16 37 17 4 18 3 19 38 20 2 21 39 22 1 23 33 24
REMARK SMILES IDX 34 25 35 26 36 27 17 28 18 30 19 31 29 32 20 33 22 34 21 35
REMARK SMILES IDX 23 36 24 37 28 38 25 39 27 40 26 41
REMARK H PARENT 8 11 17 29
ROOT
ATOM      1  C   UNL     1      25.766   3.484  51.825  1.00  0.00     0.042 A 
ATOM      2  C   UNL     1      24.899   3.261  50.745  1.00  0.00     0.014 A 
ATOM      3  C   UNL     1      23.555   3.632  50.802  1.00  0.00     0.006 A 
ATOM      4  C   UNL     1      23.005   4.160  51.959  1.00  0.00    -0.027 A 
ATOM      5  C   UNL     1      21.535   4.553  52.010  1.00  0.00     0.046 C 
ATOM      6  C   UNL     1      23.837   4.288  53.070  1.00  0.00     0.045 A 
ATOM      7  C   UNL     1      25.189   3.933  52.984  1.00  0.00     0.040 A 
ENDROOT
BRANCH   1   8
ATOM      8  C   UNL     1      27.163   3.012  51.897  1.00  0.00     0.255 C 
ATOM      9  O   UNL     1      27.770   3.026  50.854  1.00  0.00    -0.269 OA
ATOM     10  N   UNL     1      27.674   2.863  53.129  1.00  0.00    -0.322 N 
ATOM     11  H   UNL     1      27.037   3.024  53.922  1.00  0.00     0.170 HD
BRANCH  10  12
ATOM     12  C   UNL     1      28.983   2.511  53.432  1.00  0.00     0.044 A 
ATOM     13  C   UNL     1      29.676   1.549  52.655  1.00  0.00     0.052 A 
ATOM     14  C   UNL     1      29.611   3.014  54.592  1.00  0.00     0.039 A 
ATOM     15  C   UNL     1      30.996   1.195  52.946  1.00  0.00     0.049 A 
ATOM     16  C   UNL     1      30.964   2.669  54.874  1.00  0.00     0.060 A 
ATOM     17  C   UNL     1      31.620   1.739  54.064  1.00  0.00     0.039 A 
BRANCH  15  18
ATOM     18  N   UNL     1      31.705   0.276  52.159  1.00  0.00    -0.306 N 
ATOM     19  C   UNL     1      31.351  -0.281  50.931  1.00  0.00     0.116 A 
ATOM     20  C   UNL     1      32.850  -0.338  52.478  1.00  0.00     0.204 A 
ATOM     21  C   UNL     1      32.297  -1.182  50.588  1.00  0.00     0.056 A 
ATOM     22  N   UNL     1      33.243  -1.179  51.553  1.00  0.00    -0.242 NA
ATOM     23  C   UNL     1      32.366  -2.028  49.339  1.00  0.00     0.068 C 
ENDBRANCH  15  18
BRANCH  16  24
ATOM     24  C   UNL     1      31.624   3.264  56.076  1.00  0.00     0.416 C 
ATOM     25  F   UNL     1      31.650   2.468  57.163  1.00  0.00    -0.166 F 
ATOM     26  F   UNL     1      32.917   3.471  55.856  1.00  0.00    -0.166 F 
ATOM     27  F   UNL     1      30.991   4.372  56.513  1.00  0.00    -0.166 F 
ENDBRANCH  16  24
ENDBRANCH  10  12
ENDBRANCH   1   8
BRANCH   6  28
ATOM     28  N   UNL     1      23.348   4.967  54.194  1.00  0.00    -0.324 N 
ATOM     29  H   UNL     1      22.381   4.815  54.512  1.00  0.00     0.170 HD
BRANCH  28  30
ATOM     30  C   UNL     1      24.184   5.851  54.880  1.00  0.00     0.227 A 
ATOM     31  N   UNL     1      25.415   6.240  54.573  1.00  0.00    -0.221 NA
ATOM     32  N   UNL     1      23.545   6.221  56.019  1.00  0.00    -0.213 NA
ATOM     33  C   UNL     1      26.019   7.076  55.439  1.00  0.00     0.117 A 
ATOM     34  C   UNL     1      24.198   7.028  56.864  1.00  0.00     0.077 A 
ATOM     35  C   UNL     1      25.445   7.465  56.588  1.00  0.00     0.049 A 
BRANCH  34  36
ATOM     36  C   UNL     1      23.443   7.432  58.079  1.00  0.00     0.019 A 
ATOM     37  C   UNL     1      24.098   7.779  59.271  1.00  0.00     0.013 A 
ATOM     38  C   UNL     1      22.034   7.463  58.068  1.00  0.00     0.121 A 
ATOM     39  C   UNL     1      23.340   8.124  60.382  1.00  0.00     0.021 A 
ATOM     40  N   UNL     1      21.298   7.788  59.139  1.00  0.00    -0.264 NA
ATOM     41  C   UNL     1      21.951   8.139  60.258  1.00  0.00     0.111 A 
ENDBRANCH  34  36
ENDBRANCH  28  30
ENDBRANCH   6  28
TORSDOF 7
ENDMDL
MODEL 9
REMARK VINA RESULT:   -10.902      4.064     11.312
REMARK INTER + INTRA:         -14.107
REMARK INTER:                 -12.991
REMARK INTRA:                  -1.117
REMARK CONF_INDEPENDENT:        2.088
REMARK UNBOUND:                -1.117
REMARK SMILES Cc1cn(-c2cc(NC(=O)c3ccc(C)c(Nc4nccc(-c5cccnc5)n4)c3)cc(C(F)(F)F)c2)cn1
REMARK SMILES IDX 11 1 12 2 13 3 14 4 15 5 16 6 30 7 9 8 10 9 8 10 7 12 6 13
REMARK SMILES IDX 31 14 5 15 32 16 37 17 4 18 3 19 38 20 2 21 39 22 1 23 33 24
REMARK SMILES IDX 34 25 35 26 36 27 17 28 18 30 19 31 29 32 20 33 22 34 21 35
REMARK SMILES IDX 23 36 24 37 28 38 25 39 27 40 26 41
REMARK H PARENT 8 11 17 29
ROOT
ATOM      1  C   UNL     1      25.441   3.866  52.033  1.00  0.00     0.042 A 
ATOM      2  C   UNL     1      24.271   3.326  51.478  1.00  0.00     0.014 A 
ATOM      3  C   UNL     1      23.030   3.936  51.662  1.00  0.00     0.006 A 
ATOM      4  C   UNL     1      22.891   5.055  52.468  1.00  0.00    -0.027 A 
ATOM      5  C   UNL     1      21.530   5.706  52.665  1.00  0.00     0.046 C 
ATOM      6  C   UNL     1      24.033   5.537  53.106  1.00  0.00     0.045 A 
ATOM      7  C   UNL     1      25.274   4.924  52.889  1.00  0.00     0.040 A 
ENDROOT
BRANCH   1   8
ATOM      8  C   UNL     1      26.768   3.222  51.996  1.00  0.00     0.255 C 
ATOM      9  O   UNL     1      27.215   3.018  50.894  1.00  0.00    -0.269 OA
ATOM     10  N   UNL     1      27.431   3.165  53.162  1.00  0.00    -0.322 N 
ATOM     11  H   UNL     1      26.938   3.512  53.997  1.00  0.00     0.170 HD
BRANCH  10  12
ATOM     12  C   UNL     1      28.719   2.680  53.344  1.00  0.00     0.044 A 
ATOM     13  C   UNL     1      29.240   1.663  52.506  1.00  0.00     0.052 A 
ATOM     14  C   UNL     1      29.496   3.105  54.445  1.00  0.00     0.039 A 
ATOM     15  C   UNL     1      30.539   1.177  52.676  1.00  0.00     0.049 A 
ATOM     16  C   UNL     1      30.828   2.624  54.603  1.00  0.00     0.060 A 
ATOM     17  C   UNL     1      31.312   1.642  53.735  1.00  0.00     0.039 A 
BRANCH  15  18
ATOM     18  N   UNL     1      31.078   0.200  51.826  1.00  0.00    -0.306 N 
ATOM     19  C   UNL     1      32.410  -0.175  51.656  1.00  0.00     0.116 A 
ATOM     20  C   UNL     1      30.415  -0.525  50.916  1.00  0.00     0.204 A 
ATOM     21  C   UNL     1      32.466  -1.096  50.669  1.00  0.00     0.056 A 
ATOM     22  N   UNL     1      31.205  -1.325  50.241  1.00  0.00    -0.242 NA
ATOM     23  C   UNL     1      33.683  -1.813  50.136  1.00  0.00     0.068 C 
ENDBRANCH  15  18
BRANCH  16  24
ATOM     24  C   UNL     1      31.649   3.135  55.742  1.00  0.00     0.416 C 
ATOM     25  F   UNL     1      31.286   4.347  56.207  1.00  0.00    -0.166 F 
ATOM     26  F   UNL     1      31.499   2.372  56.818  1.00  0.00    -0.166 F 
ATOM     27  F   UNL     1      32.944   3.303  55.405  1.00  0.00    -0.166 F 
ENDBRANCH  16  24
ENDBRANCH  10  12
ENDBRANCH   1   8
BRANCH   6  28
ATOM     28  N   UNL     1      23.950   6.755  53.791  1.00  0.00    -0.324 N 
ATOM     29  H   UNL     1      24.367   7.607  53.390  1.00  0.00     0.170 HD
BRANCH  28  30
ATOM     30  C   UNL     1      23.296   6.806  55.024  1.00  0.00     0.227 A 
ATOM     31  N   UNL     1      22.005   6.984  55.275  1.00  0.00    -0.221 NA
ATOM     32  N   UNL     1      24.241   6.719  55.995  1.00  0.00    -0.213 NA
ATOM     33  C   UNL     1      21.642   7.037  56.571  1.00  0.00     0.117 A 
ATOM     34  C   UNL     1      23.836   6.809  57.267  1.00  0.00     0.077 A 
ATOM     35  C   UNL     1      22.531   6.972  57.574  1.00  0.00     0.049 A 
BRANCH  34  36
ATOM     36  C   UNL     1      24.903   6.672  58.293  1.00  0.00     0.019 A 
ATOM     37  C   UNL     1      24.600   6.555  59.659  1.00  0.00     0.013 A 
ATOM     38  C   UNL     1      26.261   6.671  57.917  1.00  0.00     0.121 A 
ATOM     39  C   UNL     1      25.640   6.455  60.575  1.00  0.00     0.021 A 
ATOM     40  N   UNL     1      27.267   6.584  58.796  1.00  0.00    -0.264 NA
ATOM     41  C   UNL     1      26.948   6.447  60.093  1.00  0.00     0.111 A 
ENDBRANCH  34  36
ENDBRANCH  28  30
ENDBRANCH   6  28
TORSDOF 7
ENDMDL
MODEL 10
REMARK VINA RESULT:   -10.891      8.391     15.252
REMARK INTER + INTRA:         -14.287
REMARK INTER:                 -12.979
REMARK INTRA:                  -1.308
REMARK CONF_INDEPENDENT:        2.088
REMARK UNBOUND:                -1.308
REMARK SMILES Cc1cn(-c2cc(NC(=O)c3ccc(C)c(Nc4nccc(-c5cccnc5)n4)c3)cc(C(F)(F)F)c2)cn1
REMARK SMILES IDX 11 1 12 2 13 3 14 4 15 5 16 6 30 7 9 8 10 9 8 10 7 12 6 13
REMARK SMILES IDX 31 14 5 15 32 16 37 17 4 18 3 19 38 20 2 21 39 22 1 23 33 24
REMARK SMILES IDX 34 25 35 26 36 27 17 28 18 30 19 31 29 32 20 33 22 34 21 35
REMARK SMILES IDX 23 36 24 37 28 38 25 39 27 40 26 41
REMARK H PARENT 8 11 17 29
ROOT
ATOM      1  C   UNL     1      35.991  -1.654  49.266  1.00  0.00     0.042 A 
ATOM      2  C   UNL     1      35.215  -2.818  49.160  1.00  0.00     0.014 A 
ATOM      3  C   UNL     1      33.842  -2.801  49.410  1.00  0.00     0.006 A 
ATOM      4  C   UNL     1      33.206  -1.653  49.855  1.00  0.00    -0.027 A 
ATOM      5  C   UNL     1      31.710  -1.651  50.131  1.00  0.00     0.046 C 
ATOM      6  C   UNL     1      33.991  -0.519  50.062  1.00  0.00     0.045 A 
ATOM      7  C   UNL     1      35.363  -0.550  49.781  1.00  0.00     0.040 A 
ENDROOT
BRANCH   1   8
ATOM      8  C   UNL     1      37.461  -1.607  49.145  1.00  0.00     0.255 C 
ATOM      9  O   UNL     1      38.046  -1.156  50.099  1.00  0.00    -0.269 OA
ATOM     10  N   UNL     1      37.992  -2.289  48.119  1.00  0.00    -0.322 N 
ATOM     11  H   UNL     1      37.334  -2.733  47.462  1.00  0.00     0.170 HD
BRANCH  10  12
ATOM     12  C   UNL     1      39.347  -2.451  47.860  1.00  0.00     0.044 A 
ATOM     13  C   UNL     1      39.909  -2.029  46.630  1.00  0.00     0.052 A 
ATOM     14  C   UNL     1      40.173  -3.149  48.769  1.00  0.00     0.039 A 
ATOM     15  C   UNL     1      41.273  -2.178  46.364  1.00  0.00     0.049 A 
ATOM     16  C   UNL     1      41.567  -3.280  48.507  1.00  0.00     0.060 A 
ATOM     17  C   UNL     1      42.084  -2.822  47.293  1.00  0.00     0.039 A 
BRANCH  15  18
ATOM     18  N   UNL     1      41.846  -1.726  45.166  1.00  0.00    -0.306 N 
ATOM     19  C   UNL     1      42.143  -0.421  44.776  1.00  0.00     0.116 A 
ATOM     20  C   UNL     1      42.146  -2.465  44.092  1.00  0.00     0.204 A 
ATOM     21  C   UNL     1      42.604  -0.455  43.506  1.00  0.00     0.056 A 
ATOM     22  N   UNL     1      42.629  -1.747  43.108  1.00  0.00    -0.242 NA
ATOM     23  C   UNL     1      43.073   0.701  42.657  1.00  0.00     0.068 C 
ENDBRANCH  15  18
BRANCH  16  24
ATOM     24  C   UNL     1      42.428  -3.970  49.514  1.00  0.00     0.416 C 
ATOM     25  F   UNL     1      42.141  -3.686  50.799  1.00  0.00    -0.166 F 
ATOM     26  F   UNL     1      42.247  -5.285  49.476  1.00  0.00    -0.166 F 
ATOM     27  F   UNL     1      43.728  -3.626  49.399  1.00  0.00    -0.166 F 
ENDBRANCH  16  24
ENDBRANCH  10  12
ENDBRANCH   1   8
BRANCH   6  28
ATOM     28  N   UNL     1      33.350   0.692  50.353  1.00  0.00    -0.324 N 
ATOM     29  H   UNL     1      33.009   1.294  49.591  1.00  0.00     0.170 HD
BRANCH  28  30
ATOM     30  C   UNL     1      33.177   1.075  51.684  1.00  0.00     0.227 A 
ATOM     31  N   UNL     1      33.881   1.944  52.398  1.00  0.00    -0.221 NA
ATOM     32  N   UNL     1      32.167   0.327  52.200  1.00  0.00    -0.213 NA
ATOM     33  C   UNL     1      33.525   2.097  53.688  1.00  0.00     0.117 A 
ATOM     34  C   UNL     1      31.872   0.491  53.495  1.00  0.00     0.077 A 
ATOM     35  C   UNL     1      32.547   1.376  54.259  1.00  0.00     0.049 A 
BRANCH  34  36
ATOM     36  C   UNL     1      30.737  -0.324  54.002  1.00  0.00     0.019 A 
ATOM     37  C   UNL     1      29.669   0.257  54.703  1.00  0.00     0.013 A 
ATOM     38  C   UNL     1      30.713  -1.719  53.803  1.00  0.00     0.121 A 
ATOM     39  C   UNL     1      28.648  -0.558  55.176  1.00  0.00     0.021 A 
ATOM     40  N   UNL     1      29.736  -2.511  54.264  1.00  0.00    -0.264 NA
ATOM     41  C   UNL     1      28.714  -1.924  54.908  1.00  0.00     0.111 A 
ENDBRANCH  34  36
ENDBRANCH  28  30
ENDBRANCH   6  28
TORSDOF 7
ENDMDL
MODEL 11
REMARK VINA RESULT:   -10.879      3.652     12.006
REMARK INTER + INTRA:         -14.305
REMARK INTER:                 -12.967
REMARK INTRA:                  -1.338
REMARK CONF_INDEPENDENT:        2.088
REMARK UNBOUND:                -1.338
REMARK SMILES Cc1cn(-c2cc(NC(=O)c3ccc(C)c(Nc4nccc(-c5cccnc5)n4)c3)cc(C(F)(F)F)c2)cn1
REMARK SMILES IDX 11 1 12 2 13 3 14 4 15 5 16 6 30 7 9 8 10 9 8 10 7 12 6 13
REMARK SMILES IDX 31 14 5 15 32 16 37 17 4 18 3 19 38 20 2 21 39 22 1 23 33 24
REMARK SMILES IDX 34 25 35 26 36 27 17 28 18 30 19 31 29 32 20 33 22 34 21 35
REMARK SMILES IDX 23 36 24 37 28 38 25 39 27 40 26 41
REMARK H PARENT 8 11 17 29
ROOT
ATOM      1  C   UNL     1      25.745   3.520  51.897  1.00  0.00     0.042 A 
ATOM      2  C   UNL     1      24.967   3.586  50.731  1.00  0.00     0.014 A 
ATOM      3  C   UNL     1      23.627   3.976  50.773  1.00  0.00     0.006 A 
ATOM      4  C   UNL     1      22.991   4.234  51.977  1.00  0.00    -0.027 A 
ATOM      5  C   UNL     1      21.528   4.651  52.008  1.00  0.00     0.046 C 
ATOM      6  C   UNL     1      23.731   4.069  53.147  1.00  0.00     0.045 A 
ATOM      7  C   UNL     1      25.081   3.701  53.082  1.00  0.00     0.040 A 
ENDROOT
BRANCH   1   8
ATOM      8  C   UNL     1      27.125   2.999  51.961  1.00  0.00     0.255 C 
ATOM      9  O   UNL     1      27.680   2.868  50.897  1.00  0.00    -0.269 OA
ATOM     10  N   UNL     1      27.690   2.968  53.177  1.00  0.00    -0.322 N 
ATOM     11  H   UNL     1      27.099   3.246  53.974  1.00  0.00     0.170 HD
BRANCH  10  12
ATOM     12  C   UNL     1      28.998   2.597  53.460  1.00  0.00     0.044 A 
ATOM     13  C   UNL     1      29.664   1.625  52.673  1.00  0.00     0.052 A 
ATOM     14  C   UNL     1      29.651   3.090  54.611  1.00  0.00     0.039 A 
ATOM     15  C   UNL     1      30.984   1.252  52.944  1.00  0.00     0.049 A 
ATOM     16  C   UNL     1      31.003   2.725  54.872  1.00  0.00     0.060 A 
ATOM     17  C   UNL     1      31.633   1.786  54.052  1.00  0.00     0.039 A 
BRANCH  15  18
ATOM     18  N   UNL     1      31.666   0.322  52.146  1.00  0.00    -0.306 N 
ATOM     19  C   UNL     1      31.268  -0.259  50.943  1.00  0.00     0.116 A 
ATOM     20  C   UNL     1      32.827  -0.280  52.431  1.00  0.00     0.204 A 
ATOM     21  C   UNL     1      32.206  -1.161  50.579  1.00  0.00     0.056 A 
ATOM     22  N   UNL     1      33.189  -1.135  51.506  1.00  0.00    -0.242 NA
ATOM     23  C   UNL     1      32.230  -2.028  49.343  1.00  0.00     0.068 C 
ENDBRANCH  15  18
BRANCH  16  24
ATOM     24  C   UNL     1      31.690   3.309  56.064  1.00  0.00     0.416 C 
ATOM     25  F   UNL     1      31.106   4.411  56.575  1.00  0.00    -0.166 F 
ATOM     26  F   UNL     1      31.650   2.473  57.095  1.00  0.00    -0.166 F 
ATOM     27  F   UNL     1      32.944   3.720  55.783  1.00  0.00    -0.166 F 
ENDBRANCH  16  24
ENDBRANCH  10  12
ENDBRANCH   1   8
BRANCH   6  28
ATOM     28  N   UNL     1      23.161   4.479  54.359  1.00  0.00    -0.324 N 
ATOM     29  H   UNL     1      22.563   3.834  54.896  1.00  0.00     0.170 HD
BRANCH  28  30
ATOM     30  C   UNL     1      23.411   5.768  54.835  1.00  0.00     0.227 A 
ATOM     31  N   UNL     1      24.368   6.182  55.655  1.00  0.00    -0.221 NA
ATOM     32  N   UNL     1      22.424   6.576  54.368  1.00  0.00    -0.213 NA
ATOM     33  C   UNL     1      24.354   7.485  55.992  1.00  0.00     0.117 A 
ATOM     34  C   UNL     1      22.435   7.857  54.757  1.00  0.00     0.077 A 
ATOM     35  C   UNL     1      23.398   8.330  55.576  1.00  0.00     0.049 A 
BRANCH  34  36
ATOM     36  C   UNL     1      21.356   8.708  54.191  1.00  0.00     0.019 A 
ATOM     37  C   UNL     1      20.013   8.298  54.204  1.00  0.00     0.013 A 
ATOM     38  C   UNL     1      21.659   9.954  53.609  1.00  0.00     0.121 A 
ATOM     39  C   UNL     1      19.050   9.124  53.639  1.00  0.00     0.021 A 
ATOM     40  N   UNL     1      20.736  10.751  53.055  1.00  0.00    -0.264 NA
ATOM     41  C   UNL     1      19.456  10.346  53.104  1.00  0.00     0.111 A 
ENDBRANCH  34  36
ENDBRANCH  28  30
ENDBRANCH   6  28
TORSDOF 7
ENDMDL
MODEL 12
REMARK VINA RESULT:   -10.871      3.641     12.293
REMARK INTER + INTRA:         -14.226
REMARK INTER:                 -12.960
REMARK INTRA:                  -1.267
REMARK CONF_INDEPENDENT:        2.088
REMARK UNBOUND:                -1.267
REMARK SMILES Cc1cn(-c2cc(NC(=O)c3ccc(C)c(Nc4nccc(-c5cccnc5)n4)c3)cc(C(F)(F)F)c2)cn1
REMARK SMILES IDX 11 1 12 2 13 3 14 4 15 5 16 6 30 7 9 8 10 9 8 10 7 12 6 13
REMARK SMILES IDX 31 14 5 15 32 16 37 17 4 18 3 19 38 20 2 21 39 22 1 23 33 24
REMARK SMILES IDX 34 25 35 26 36 27 17 28 18 30 19 31 29 32 20 33 22 34 21 35
REMARK SMILES IDX 23 36 24 37 28 38 25 39 27 40 26 41
REMARK H PARENT 8 11 17 29
ROOT
ATOM      1  C   UNL     1      25.722   3.717  51.875  1.00  0.00     0.042 A 
ATOM      2  C   UNL     1      25.294   4.342  50.694  1.00  0.00     0.014 A 
ATOM      3  C   UNL     1      24.111   5.082  50.650  1.00  0.00     0.006 A 
ATOM      4  C   UNL     1      23.271   5.158  51.749  1.00  0.00    -0.027 A 
ATOM      5  C   UNL     1      21.980   5.962  51.685  1.00  0.00     0.046 C 
ATOM      6  C   UNL     1      23.639   4.453  52.894  1.00  0.00     0.045 A 
ATOM      7  C   UNL     1      24.842   3.738  52.926  1.00  0.00     0.040 A 
ENDROOT
BRANCH   1   8
ATOM      8  C   UNL     1      26.886   2.815  51.978  1.00  0.00     0.255 C 
ATOM      9  O   UNL     1      27.662   2.863  51.055  1.00  0.00    -0.269 OA
ATOM     10  N   UNL     1      27.086   2.241  53.174  1.00  0.00    -0.322 N 
ATOM     11  H   UNL     1      26.380   2.420  53.902  1.00  0.00     0.170 HD
BRANCH  10  12
ATOM     12  C   UNL     1      28.158   1.428  53.520  1.00  0.00     0.044 A 
ATOM     13  C   UNL     1      29.472   1.736  53.090  1.00  0.00     0.052 A 
ATOM     14  C   UNL     1      27.944   0.212  54.205  1.00  0.00     0.039 A 
ATOM     15  C   UNL     1      30.558   0.930  53.441  1.00  0.00     0.049 A 
ATOM     16  C   UNL     1      29.055  -0.597  54.581  1.00  0.00     0.060 A 
ATOM     17  C   UNL     1      30.339  -0.240  54.162  1.00  0.00     0.039 A 
BRANCH  15  18
ATOM     18  N   UNL     1      31.869   1.249  53.057  1.00  0.00    -0.306 N 
ATOM     19  C   UNL     1      32.605   0.771  51.973  1.00  0.00     0.116 A 
ATOM     20  C   UNL     1      32.732   2.027  53.720  1.00  0.00     0.204 A 
ATOM     21  C   UNL     1      33.850   1.289  52.048  1.00  0.00     0.056 A 
ATOM     22  N   UNL     1      33.900   2.098  53.129  1.00  0.00    -0.242 NA
ATOM     23  C   UNL     1      35.001   1.081  51.093  1.00  0.00     0.068 C 
ENDBRANCH  15  18
BRANCH  16  24
ATOM     24  C   UNL     1      28.805  -1.848  55.358  1.00  0.00     0.416 C 
ATOM     25  F   UNL     1      28.219  -2.843  54.663  1.00  0.00    -0.166 F 
ATOM     26  F   UNL     1      29.947  -2.412  55.734  1.00  0.00    -0.166 F 
ATOM     27  F   UNL     1      27.963  -1.650  56.393  1.00  0.00    -0.166 F 
ENDBRANCH  16  24
ENDBRANCH  10  12
ENDBRANCH   1   8
BRANCH   6  28
ATOM     28  N   UNL     1      22.893   4.646  54.064  1.00  0.00    -0.324 N 
ATOM     29  H   UNL     1      22.235   3.922  54.386  1.00  0.00     0.170 HD
BRANCH  28  30
ATOM     30  C   UNL     1      23.049   5.828  54.791  1.00  0.00     0.227 A 
ATOM     31  N   UNL     1      24.081   6.224  55.525  1.00  0.00    -0.221 NA
ATOM     32  N   UNL     1      21.888   6.527  54.695  1.00  0.00    -0.213 NA
ATOM     33  C   UNL     1      23.953   7.402  56.165  1.00  0.00     0.117 A 
ATOM     34  C   UNL     1      21.796   7.676  55.374  1.00  0.00     0.077 A 
ATOM     35  C   UNL     1      22.826   8.130  56.121  1.00  0.00     0.049 A 
BRANCH  34  36
ATOM     36  C   UNL     1      20.520   8.420  55.208  1.00  0.00     0.019 A 
ATOM     37  C   UNL     1      19.829   8.432  53.985  1.00  0.00     0.013 A 
ATOM     38  C   UNL     1      19.974   9.152  56.280  1.00  0.00     0.121 A 
ATOM     39  C   UNL     1      18.654   9.165  53.881  1.00  0.00     0.021 A 
ATOM     40  N   UNL     1      18.846   9.867  56.184  1.00  0.00    -0.264 NA
ATOM     41  C   UNL     1      18.193   9.840  55.011  1.00  0.00     0.111 A 
ENDBRANCH  34  36
ENDBRANCH  28  30
ENDBRANCH   6  28
TORSDOF 7
ENDMDL
MODEL 13
REMARK VINA RESULT:   -10.779      4.565     13.469
REMARK INTER + INTRA:         -14.204
REMARK INTER:                 -12.867
REMARK INTRA:                  -1.337
REMARK CONF_INDEPENDENT:        2.088
REMARK UNBOUND:                -1.337
REMARK SMILES Cc1cn(-c2cc(NC(=O)c3ccc(C)c(Nc4nccc(-c5cccnc5)n4)c3)cc(C(F)(F)F)c2)cn1
REMARK SMILES IDX 11 1 12 2 13 3 14 4 15 5 16 6 30 7 9 8 10 9 8 10 7 12 6 13
REMARK SMILES IDX 31 14 5 15 32 16 37 17 4 18 3 19 38 20 2 21 39 22 1 23 33 24
REMARK SMILES IDX 34 25 35 26 36 27 17 28 18 30 19 31 29 32 20 33 22 34 21 35
REMARK SMILES IDX 23 36 24 37 28 38 25 39 27 40 26 41
REMARK H PARENT 8 11 17 29
ROOT
ATOM      1  C   UNL     1      21.186   7.102  54.184  1.00  0.00     0.042 A 
ATOM      2  C   UNL     1      21.012   7.258  55.567  1.00  0.00     0.014 A 
ATOM      3  C   UNL     1      20.312   8.345  56.093  1.00  0.00     0.006 A 
ATOM      4  C   UNL     1      19.834   9.356  55.274  1.00  0.00    -0.027 A 
ATOM      5  C   UNL     1      19.079  10.540  55.863  1.00  0.00     0.046 C 
ATOM      6  C   UNL     1      20.094   9.259  53.908  1.00  0.00     0.045 A 
ATOM      7  C   UNL     1      20.777   8.147  53.398  1.00  0.00     0.040 A 
ENDROOT
BRANCH   1   8
ATOM      8  C   UNL     1      22.016   6.058  53.551  1.00  0.00     0.255 C 
ATOM      9  O   UNL     1      21.848   4.938  53.969  1.00  0.00    -0.269 OA
ATOM     10  N   UNL     1      22.666   6.415  52.433  1.00  0.00    -0.322 N 
ATOM     11  H   UNL     1      22.590   7.400  52.143  1.00  0.00     0.170 HD
BRANCH  10  12
ATOM     12  C   UNL     1      23.433   5.578  51.632  1.00  0.00     0.044 A 
ATOM     13  C   UNL     1      24.528   4.858  52.171  1.00  0.00     0.052 A 
ATOM     14  C   UNL     1      23.213   5.519  50.239  1.00  0.00     0.039 A 
ATOM     15  C   UNL     1      25.299   4.006  51.375  1.00  0.00     0.049 A 
ATOM     16  C   UNL     1      23.985   4.633  49.434  1.00  0.00     0.060 A 
ATOM     17  C   UNL     1      25.037   3.919  50.012  1.00  0.00     0.039 A 
BRANCH  15  18
ATOM     18  N   UNL     1      26.358   3.257  51.908  1.00  0.00    -0.306 N 
ATOM     19  C   UNL     1      26.579   2.868  53.228  1.00  0.00     0.116 A 
ATOM     20  C   UNL     1      27.446   2.831  51.255  1.00  0.00     0.204 A 
ATOM     21  C   UNL     1      27.771   2.234  53.288  1.00  0.00     0.056 A 
ATOM     22  N   UNL     1      28.282   2.193  52.037  1.00  0.00    -0.242 NA
ATOM     23  C   UNL     1      28.435   1.616  54.494  1.00  0.00     0.068 C 
ENDBRANCH  15  18
BRANCH  16  24
ATOM     24  C   UNL     1      23.691   4.546  47.971  1.00  0.00     0.416 C 
ATOM     25  F   UNL     1      24.046   3.384  47.387  1.00  0.00    -0.166 F 
ATOM     26  F   UNL     1      22.383   4.579  47.745  1.00  0.00    -0.166 F 
ATOM     27  F   UNL     1      24.361   5.474  47.257  1.00  0.00    -0.166 F 
ENDBRANCH  16  24
ENDBRANCH  10  12
ENDBRANCH   1   8
BRANCH   6  28
ATOM     28  N   UNL     1      19.484  10.179  53.046  1.00  0.00    -0.324 N 
ATOM     29  H   UNL     1      20.053  10.728  52.386  1.00  0.00     0.170 HD
BRANCH  28  30
ATOM     30  C   UNL     1      18.099  10.346  53.089  1.00  0.00     0.227 A 
ATOM     31  N   UNL     1      17.392  11.466  53.009  1.00  0.00    -0.221 NA
ATOM     32  N   UNL     1      17.544   9.127  53.316  1.00  0.00    -0.213 NA
ATOM     33  C   UNL     1      16.056  11.349  53.124  1.00  0.00     0.117 A 
ATOM     34  C   UNL     1      16.214   9.066  53.455  1.00  0.00     0.077 A 
ATOM     35  C   UNL     1      15.451  10.175  53.363  1.00  0.00     0.049 A 
BRANCH  34  36
ATOM     36  C   UNL     1      15.653   7.706  53.667  1.00  0.00     0.019 A 
ATOM     37  C   UNL     1      15.900   6.660  52.763  1.00  0.00     0.013 A 
ATOM     38  C   UNL     1      14.839   7.433  54.783  1.00  0.00     0.121 A 
ATOM     39  C   UNL     1      15.328   5.416  52.998  1.00  0.00     0.021 A 
ATOM     40  N   UNL     1      14.279   6.239  55.012  1.00  0.00    -0.264 NA
ATOM     41  C   UNL     1      14.552   5.250  54.145  1.00  0.00     0.111 A 
ENDBRANCH  34  36
ENDBRANCH  28  30
ENDBRANCH   6  28
TORSDOF 7
ENDMDL
MODEL 14
REMARK VINA RESULT:   -10.774      4.590      7.523
REMARK INTER + INTRA:         -13.714
REMARK INTER:                 -12.863
REMARK INTRA:                  -0.852
REMARK CONF_INDEPENDENT:        2.088
REMARK UNBOUND:                -0.852
REMARK SMILES Cc1cn(-c2cc(NC(=O)c3ccc(C)c(Nc4nccc(-c5cccnc5)n4)c3)cc(C(F)(F)F)c2)cn1
REMARK SMILES IDX 11 1 12 2 13 3 14 4 15 5 16 6 30 7 9 8 10 9 8 10 7 12 6 13
REMARK SMILES IDX 31 14 5 15 32 16 37 17 4 18 3 19 38 20 2 21 39 22 1 23 33 24
REMARK SMILES IDX 34 25 35 26 36 27 17 28 18 30 19 31 29 32 20 33 22 34 21 35
REMARK SMILES IDX 23 36 24 37 28 38 25 39 27 40 26 41
REMARK H PARENT 8 11 17 29
ROOT
ATOM      1  C   UNL     1      23.043   5.978  52.788  1.00  0.00     0.042 A 
ATOM      2  C   UNL     1      22.809   5.749  51.423  1.00  0.00     0.014 A 
ATOM      3  C   UNL     1      23.427   4.697  50.746  1.00  0.00     0.006 A 
ATOM      4  C   UNL     1      24.359   3.887  51.375  1.00  0.00    -0.027 A 
ATOM      5  C   UNL     1      25.030   2.747  50.622  1.00  0.00     0.046 C 
ATOM      6  C   UNL     1      24.673   4.174  52.703  1.00  0.00     0.045 A 
ATOM      7  C   UNL     1      24.024   5.219  53.371  1.00  0.00     0.040 A 
ENDROOT
BRANCH   1   8
ATOM      8  C   UNL     1      22.534   7.137  53.548  1.00  0.00     0.255 C 
ATOM      9  O   UNL     1      23.362   7.961  53.851  1.00  0.00    -0.269 OA
ATOM     10  N   UNL     1      21.201   7.272  53.598  1.00  0.00    -0.322 N 
ATOM     11  H   UNL     1      20.638   6.527  53.163  1.00  0.00     0.170 HD
BRANCH  10  12
ATOM     12  C   UNL     1      20.509   8.325  54.183  1.00  0.00     0.044 A 
ATOM     13  C   UNL     1      19.431   8.951  53.510  1.00  0.00     0.052 A 
ATOM     14  C   UNL     1      20.942   8.875  55.410  1.00  0.00     0.039 A 
ATOM     15  C   UNL     1      18.723  10.004  54.094  1.00  0.00     0.049 A 
ATOM     16  C   UNL     1      20.205   9.933  56.014  1.00  0.00     0.060 A 
ATOM     17  C   UNL     1      19.129  10.501  55.328  1.00  0.00     0.039 A 
BRANCH  15  18
ATOM     18  N   UNL     1      17.627  10.603  53.454  1.00  0.00    -0.306 N 
ATOM     19  C   UNL     1      16.315  10.736  53.904  1.00  0.00     0.116 A 
ATOM     20  C   UNL     1      17.598  11.098  52.211  1.00  0.00     0.204 A 
ATOM     21  C   UNL     1      15.585  11.302  52.918  1.00  0.00     0.056 A 
ATOM     22  N   UNL     1      16.414  11.550  51.879  1.00  0.00    -0.242 NA
ATOM     23  C   UNL     1      14.120  11.664  52.937  1.00  0.00     0.068 C 
ENDBRANCH  15  18
BRANCH  16  24
ATOM     24  C   UNL     1      20.650  10.456  57.342  1.00  0.00     0.416 C 
ATOM     25  F   UNL     1      19.654  10.756  58.199  1.00  0.00    -0.166 F 
ATOM     26  F   UNL     1      21.324   9.532  58.016  1.00  0.00    -0.166 F 
ATOM     27  F   UNL     1      21.331  11.615  57.235  1.00  0.00    -0.166 F 
ENDBRANCH  16  24
ENDBRANCH  10  12
ENDBRANCH   1   8
BRANCH   6  28
ATOM     28  N   UNL     1      25.486   3.275  53.404  1.00  0.00    -0.324 N 
ATOM     29  H   UNL     1      25.157   2.856  54.286  1.00  0.00     0.170 HD
BRANCH  28  30
ATOM     30  C   UNL     1      26.747   2.950  52.899  1.00  0.00     0.227 A 
ATOM     31  N   UNL     1      27.460   3.579  51.973  1.00  0.00    -0.221 NA
ATOM     32  N   UNL     1      27.131   1.780  53.471  1.00  0.00    -0.213 NA
ATOM     33  C   UNL     1      28.638   3.022  51.635  1.00  0.00     0.117 A 
ATOM     34  C   UNL     1      28.295   1.249  53.079  1.00  0.00     0.077 A 
ATOM     35  C   UNL     1      29.065   1.860  52.154  1.00  0.00     0.049 A 
BRANCH  34  36
ATOM     36  C   UNL     1      28.687  -0.013  53.760  1.00  0.00     0.019 A 
ATOM     37  C   UNL     1      28.001  -0.481  54.893  1.00  0.00     0.013 A 
ATOM     38  C   UNL     1      29.777  -0.771  53.290  1.00  0.00     0.121 A 
ATOM     39  C   UNL     1      28.428  -1.653  55.503  1.00  0.00     0.021 A 
ATOM     40  N   UNL     1      30.198  -1.897  53.879  1.00  0.00    -0.264 NA
ATOM     41  C   UNL     1      29.509  -2.336  54.945  1.00  0.00     0.111 A 
ENDBRANCH  34  36
ENDBRANCH  28  30
ENDBRANCH   6  28
TORSDOF 7
ENDMDL
MODEL 15
REMARK VINA RESULT:   -10.603      1.945      3.867
REMARK INTER + INTRA:         -14.385
REMARK INTER:                 -12.691
REMARK INTRA:                  -1.694
REMARK CONF_INDEPENDENT:        2.088
REMARK UNBOUND:                -1.694
REMARK SMILES Cc1cn(-c2cc(NC(=O)c3ccc(C)c(Nc4nccc(-c5cccnc5)n4)c3)cc(C(F)(F)F)c2)cn1
REMARK SMILES IDX 11 1 12 2 13 3 14 4 15 5 16 6 30 7 9 8 10 9 8 10 7 12 6 13
REMARK SMILES IDX 31 14 5 15 32 16 37 17 4 18 3 19 38 20 2 21 39 22 1 23 33 24
REMARK SMILES IDX 34 25 35 26 36 27 17 28 18 30 19 31 29 32 20 33 22 34 21 35
REMARK SMILES IDX 23 36 24 37 28 38 25 39 27 40 26 41
REMARK H PARENT 8 11 17 29
ROOT
ATOM      1  C   UNL     1      27.578   1.574  53.538  1.00  0.00     0.042 A 
ATOM      2  C   UNL     1      27.436   0.856  54.735  1.00  0.00     0.014 A 
ATOM      3  C   UNL     1      28.182  -0.298  54.982  1.00  0.00     0.006 A 
ATOM      4  C   UNL     1      29.030  -0.825  54.022  1.00  0.00    -0.027 A 
ATOM      5  C   UNL     1      29.831  -2.089  54.303  1.00  0.00     0.046 C 
ATOM      6  C   UNL     1      29.097  -0.173  52.791  1.00  0.00     0.045 A 
ATOM      7  C   UNL     1      28.360   0.997  52.572  1.00  0.00     0.040 A 
ENDROOT
BRANCH   1   8
ATOM      8  C   UNL     1      26.743   2.726  53.142  1.00  0.00     0.255 C 
ATOM      9  O   UNL     1      26.972   3.757  53.725  1.00  0.00    -0.269 OA
ATOM     10  N   UNL     1      26.013   2.571  52.027  1.00  0.00    -0.322 N 
ATOM     11  H   UNL     1      26.040   1.646  51.575  1.00  0.00     0.170 HD
BRANCH  10  12
ATOM     12  C   UNL     1      25.225   3.545  51.427  1.00  0.00     0.044 A 
ATOM     13  C   UNL     1      24.603   4.556  52.201  1.00  0.00     0.052 A 
ATOM     14  C   UNL     1      24.927   3.478  50.048  1.00  0.00     0.039 A 
ATOM     15  C   UNL     1      23.816   5.545  51.605  1.00  0.00     0.049 A 
ATOM     16  C   UNL     1      24.143   4.499  49.440  1.00  0.00     0.060 A 
ATOM     17  C   UNL     1      23.574   5.496  50.236  1.00  0.00     0.039 A 
BRANCH  15  18
ATOM     18  N   UNL     1      23.230   6.575  52.357  1.00  0.00    -0.306 N 
ATOM     19  C   UNL     1      22.704   7.788  51.919  1.00  0.00     0.116 A 
ATOM     20  C   UNL     1      23.139   6.640  53.691  1.00  0.00     0.204 A 
ATOM     21  C   UNL     1      22.327   8.501  53.003  1.00  0.00     0.056 A 
ATOM     22  N   UNL     1      22.578   7.752  54.100  1.00  0.00    -0.242 NA
ATOM     23  C   UNL     1      21.687   9.867  53.040  1.00  0.00     0.068 C 
ENDBRANCH  15  18
BRANCH  16  24
ATOM     24  C   UNL     1      23.894   4.437  47.968  1.00  0.00     0.416 C 
ATOM     25  F   UNL     1      24.175   3.251  47.392  1.00  0.00    -0.166 F 
ATOM     26  F   UNL     1      22.601   4.575  47.697  1.00  0.00    -0.166 F 
ATOM     27  F   UNL     1      24.661   5.308  47.280  1.00  0.00    -0.166 F 
ENDBRANCH  16  24
ENDBRANCH  10  12
ENDBRANCH   1   8
BRANCH   6  28
ATOM     28  N   UNL     1      30.064  -0.591  51.868  1.00  0.00    -0.324 N 
ATOM     29  H   UNL     1      29.821  -1.268  51.131  1.00  0.00     0.170 HD
BRANCH  28  30
ATOM     30  C   UNL     1      31.361  -0.080  51.953  1.00  0.00     0.227 A 
ATOM     31  N   UNL     1      32.440  -0.430  51.265  1.00  0.00    -0.221 NA
ATOM     32  N   UNL     1      31.379   0.831  52.960  1.00  0.00    -0.213 NA
ATOM     33  C   UNL     1      33.589   0.198  51.579  1.00  0.00     0.117 A 
ATOM     34  C   UNL     1      32.551   1.405  53.258  1.00  0.00     0.077 A 
ATOM     35  C   UNL     1      33.673   1.096  52.574  1.00  0.00     0.049 A 
BRANCH  34  36
ATOM     36  C   UNL     1      32.511   2.420  54.343  1.00  0.00     0.019 A 
ATOM     37  C   UNL     1      31.469   2.451  55.283  1.00  0.00     0.013 A 
ATOM     38  C   UNL     1      33.521   3.396  54.446  1.00  0.00     0.121 A 
ATOM     39  C   UNL     1      31.471   3.438  56.260  1.00  0.00     0.021 A 
ATOM     40  N   UNL     1      33.524   4.355  55.381  1.00  0.00    -0.264 NA
ATOM     41  C   UNL     1      32.529   4.346  56.283  1.00  0.00     0.111 A 
ENDBRANCH  34  36
ENDBRANCH  28  30
ENDBRANCH   6  28
TORSDOF 7
ENDMDL
MODEL 16
REMARK VINA RESULT:   -10.603      8.262     14.928
REMARK INTER + INTRA:         -14.048
REMARK INTER:                 -12.691
REMARK INTRA:                  -1.357
REMARK CONF_INDEPENDENT:        2.088
REMARK UNBOUND:                -1.357
REMARK SMILES Cc1cn(-c2cc(NC(=O)c3ccc(C)c(Nc4nccc(-c5cccnc5)n4)c3)cc(C(F)(F)F)c2)cn1
REMARK SMILES IDX 11 1 12 2 13 3 14 4 15 5 16 6 30 7 9 8 10 9 8 10 7 12 6 13
REMARK SMILES IDX 31 14 5 15 32 16 37 17 4 18 3 19 38 20 2 21 39 22 1 23 33 24
REMARK SMILES IDX 34 25 35 26 36 27 17 28 18 30 19 31 29 32 20 33 22 34 21 35
REMARK SMILES IDX 23 36 24 37 28 38 25 39 27 40 26 41
REMARK H PARENT 8 11 17 29
ROOT
ATOM      1  C   UNL     1      36.131  -1.579  49.551  1.00  0.00     0.042 A 
ATOM      2  C   UNL     1      35.444  -2.778  49.308  1.00  0.00     0.014 A 
ATOM      3  C   UNL     1      34.052  -2.847  49.386  1.00  0.00     0.006 A 
ATOM      4  C   UNL     1      33.300  -1.756  49.788  1.00  0.00    -0.027 A 
ATOM      5  C   UNL     1      31.783  -1.848  49.877  1.00  0.00     0.046 C 
ATOM      6  C   UNL     1      33.985  -0.591  50.132  1.00  0.00     0.045 A 
ATOM      7  C   UNL     1      35.380  -0.534  50.022  1.00  0.00     0.040 A 
ENDROOT
BRANCH   1   8
ATOM      8  C   UNL     1      37.600  -1.447  49.615  1.00  0.00     0.255 C 
ATOM      9  O   UNL     1      38.014  -0.652  50.423  1.00  0.00    -0.269 OA
ATOM     10  N   UNL     1      38.307  -2.384  48.966  1.00  0.00    -0.322 N 
ATOM     11  H   UNL     1      37.775  -3.078  48.422  1.00  0.00     0.170 HD
BRANCH  10  12
ATOM     12  C   UNL     1      39.691  -2.502  48.959  1.00  0.00     0.044 A 
ATOM     13  C   UNL     1      40.426  -2.503  50.170  1.00  0.00     0.052 A 
ATOM     14  C   UNL     1      40.406  -2.504  47.741  1.00  0.00     0.039 A 
ATOM     15  C   UNL     1      41.818  -2.632  50.174  1.00  0.00     0.049 A 
ATOM     16  C   UNL     1      41.821  -2.658  47.748  1.00  0.00     0.060 A 
ATOM     17  C   UNL     1      42.505  -2.685  48.966  1.00  0.00     0.039 A 
BRANCH  15  18
ATOM     18  N   UNL     1      42.552  -2.675  51.369  1.00  0.00    -0.306 N 
ATOM     19  C   UNL     1      42.574  -3.668  52.347  1.00  0.00     0.116 A 
ATOM     20  C   UNL     1      43.328  -1.707  51.869  1.00  0.00     0.204 A 
ATOM     21  C   UNL     1      43.358  -3.243  53.362  1.00  0.00     0.056 A 
ATOM     22  N   UNL     1      43.847  -2.028  53.029  1.00  0.00    -0.242 NA
ATOM     23  C   UNL     1      43.706  -3.975  54.636  1.00  0.00     0.068 C 
ENDBRANCH  15  18
BRANCH  16  24
ATOM     24  C   UNL     1      42.547  -2.717  46.442  1.00  0.00     0.416 C 
ATOM     25  F   UNL     1      43.870  -2.474  46.515  1.00  0.00    -0.166 F 
ATOM     26  F   UNL     1      42.520  -3.945  45.937  1.00  0.00    -0.166 F 
ATOM     27  F   UNL     1      42.105  -1.790  45.568  1.00  0.00    -0.166 F 
ENDBRANCH  16  24
ENDBRANCH  10  12
ENDBRANCH   1   8
BRANCH   6  28
ATOM     28  N   UNL     1      33.241   0.570  50.383  1.00  0.00    -0.324 N 
ATOM     29  H   UNL     1      32.840   1.108  49.603  1.00  0.00     0.170 HD
BRANCH  28  30
ATOM     30  C   UNL     1      33.049   0.990  51.701  1.00  0.00     0.227 A 
ATOM     31  N   UNL     1      33.724   1.901  52.391  1.00  0.00    -0.221 NA
ATOM     32  N   UNL     1      32.058   0.231  52.235  1.00  0.00    -0.213 NA
ATOM     33  C   UNL     1      33.356   2.084  53.673  1.00  0.00     0.117 A 
ATOM     34  C   UNL     1      31.749   0.428  53.522  1.00  0.00     0.077 A 
ATOM     35  C   UNL     1      32.395   1.355  54.261  1.00  0.00     0.049 A 
BRANCH  34  36
ATOM     36  C   UNL     1      30.634  -0.402  54.049  1.00  0.00     0.019 A 
ATOM     37  C   UNL     1      29.550   0.171  54.733  1.00  0.00     0.013 A 
ATOM     38  C   UNL     1      30.645  -1.801  53.886  1.00  0.00     0.121 A 
ATOM     39  C   UNL     1      28.549  -0.657  55.226  1.00  0.00     0.021 A 
ATOM     40  N   UNL     1      29.687  -2.605  54.365  1.00  0.00    -0.264 NA
ATOM     41  C   UNL     1      28.650  -2.028  54.993  1.00  0.00     0.111 A 
ENDBRANCH  34  36
ENDBRANCH  28  30
ENDBRANCH   6  28
TORSDOF 7
ENDMDL
MODEL 17
REMARK VINA RESULT:   -10.505      5.720     10.788
REMARK INTER + INTRA:         -13.757
REMARK INTER:                 -12.593
REMARK INTRA:                  -1.164
REMARK CONF_INDEPENDENT:        2.088
REMARK UNBOUND:                -1.164
REMARK SMILES Cc1cn(-c2cc(NC(=O)c3ccc(C)c(Nc4nccc(-c5cccnc5)n4)c3)cc(C(F)(F)F)c2)cn1
REMARK SMILES IDX 11 1 12 2 13 3 14 4 15 5 16 6 30 7 9 8 10 9 8 10 7 12 6 13
REMARK SMILES IDX 31 14 5 15 32 16 37 17 4 18 3 19 38 20 2 21 39 22 1 23 33 24
REMARK SMILES IDX 34 25 35 26 36 27 17 28 18 30 19 31 29 32 20 33 22 34 21 35
REMARK SMILES IDX 23 36 24 37 28 38 25 39 27 40 26 41
REMARK H PARENT 8 11 17 29
ROOT
ATOM      1  C   UNL     1      22.328   6.490  55.197  1.00  0.00     0.042 A 
ATOM      2  C   UNL     1      21.555   7.607  54.846  1.00  0.00     0.014 A 
ATOM      3  C   UNL     1      21.096   8.505  55.811  1.00  0.00     0.006 A 
ATOM      4  C   UNL     1      21.315   8.282  57.161  1.00  0.00    -0.027 A 
ATOM      5  C   UNL     1      20.801   9.266  58.203  1.00  0.00     0.046 C 
ATOM      6  C   UNL     1      21.993   7.119  57.523  1.00  0.00     0.045 A 
ATOM      7  C   UNL     1      22.467   6.244  56.538  1.00  0.00     0.040 A 
ENDROOT
BRANCH   1   8
ATOM      8  C   UNL     1      22.745   5.426  54.262  1.00  0.00     0.255 C 
ATOM      9  O   UNL     1      21.848   4.777  53.781  1.00  0.00    -0.269 OA
ATOM     10  N   UNL     1      24.025   5.460  53.860  1.00  0.00    -0.322 N 
ATOM     11  H   UNL     1      24.628   6.179  54.283  1.00  0.00     0.170 HD
BRANCH  10  12
ATOM     12  C   UNL     1      24.609   4.614  52.926  1.00  0.00     0.044 A 
ATOM     13  C   UNL     1      23.881   4.161  51.799  1.00  0.00     0.052 A 
ATOM     14  C   UNL     1      25.903   4.091  53.142  1.00  0.00     0.039 A 
ATOM     15  C   UNL     1      24.463   3.318  50.848  1.00  0.00     0.049 A 
ATOM     16  C   UNL     1      26.503   3.250  52.162  1.00  0.00     0.060 A 
ATOM     17  C   UNL     1      25.759   2.852  51.049  1.00  0.00     0.039 A 
BRANCH  15  18
ATOM     18  N   UNL     1      23.764   2.897  49.707  1.00  0.00    -0.306 N 
ATOM     19  C   UNL     1      22.982   1.757  49.530  1.00  0.00     0.116 A 
ATOM     20  C   UNL     1      23.781   3.474  48.499  1.00  0.00     0.204 A 
ATOM     21  C   UNL     1      22.577   1.720  48.242  1.00  0.00     0.056 A 
ATOM     22  N   UNL     1      23.060   2.820  47.622  1.00  0.00    -0.242 NA
ATOM     23  C   UNL     1      21.696   0.691  47.575  1.00  0.00     0.068 C 
ENDBRANCH  15  18
BRANCH  16  24
ATOM     24  C   UNL     1      27.896   2.759  52.388  1.00  0.00     0.416 C 
ATOM     25  F   UNL     1      28.815   3.238  51.527  1.00  0.00    -0.166 F 
ATOM     26  F   UNL     1      28.367   3.181  53.555  1.00  0.00    -0.166 F 
ATOM     27  F   UNL     1      27.998   1.422  52.243  1.00  0.00    -0.166 F 
ENDBRANCH  16  24
ENDBRANCH  10  12
ENDBRANCH   1   8
BRANCH   6  28
ATOM     28  N   UNL     1      22.367   6.955  58.863  1.00  0.00    -0.324 N 
ATOM     29  H   UNL     1      21.837   6.320  59.476  1.00  0.00     0.170 HD
BRANCH  28  30
ATOM     30  C   UNL     1      23.466   7.659  59.360  1.00  0.00     0.227 A 
ATOM     31  N   UNL     1      23.788   8.934  59.180  1.00  0.00    -0.221 NA
ATOM     32  N   UNL     1      24.248   6.779  60.035  1.00  0.00    -0.213 NA
ATOM     33  C   UNL     1      24.938   9.353  59.742  1.00  0.00     0.117 A 
ATOM     34  C   UNL     1      25.397   7.234  60.549  1.00  0.00     0.077 A 
ATOM     35  C   UNL     1      25.761   8.527  60.408  1.00  0.00     0.049 A 
BRANCH  34  36
ATOM     36  C   UNL     1      26.200   6.240  61.308  1.00  0.00     0.019 A 
ATOM     37  C   UNL     1      26.390   6.353  62.694  1.00  0.00     0.013 A 
ATOM     38  C   UNL     1      26.808   5.156  60.645  1.00  0.00     0.121 A 
ATOM     39  C   UNL     1      27.172   5.408  63.347  1.00  0.00     0.021 A 
ATOM     40  N   UNL     1      27.569   4.246  61.268  1.00  0.00    -0.264 NA
ATOM     41  C   UNL     1      27.713   4.364  62.598  1.00  0.00     0.111 A 
ENDBRANCH  34  36
ENDBRANCH  28  30
ENDBRANCH   6  28
TORSDOF 7
ENDMDL
MODEL 18
REMARK VINA RESULT:   -10.312      8.423     14.446
REMARK INTER + INTRA:         -13.663
REMARK INTER:                 -12.400
REMARK INTRA:                  -1.263
REMARK CONF_INDEPENDENT:        2.088
REMARK UNBOUND:                -1.263
REMARK SMILES Cc1cn(-c2cc(NC(=O)c3ccc(C)c(Nc4nccc(-c5cccnc5)n4)c3)cc(C(F)(F)F)c2)cn1
REMARK SMILES IDX 11 1 12 2 13 3 14 4 15 5 16 6 30 7 9 8 10 9 8 10 7 12 6 13
REMARK SMILES IDX 31 14 5 15 32 16 37 17 4 18 3 19 38 20 2 21 39 22 1 23 33 24
REMARK SMILES IDX 34 25 35 26 36 27 17 28 18 30 19 31 29 32 20 33 22 34 21 35
REMARK SMILES IDX 23 36 24 37 28 38 25 39 27 40 26 41
REMARK H PARENT 8 11 17 29
ROOT
ATOM      1  C   UNL     1      35.860  -1.859  49.261  1.00  0.00     0.042 A 
ATOM      2  C   UNL     1      35.033  -2.991  49.203  1.00  0.00     0.014 A 
ATOM      3  C   UNL     1      33.669  -2.910  49.489  1.00  0.00     0.006 A 
ATOM      4  C   UNL     1      33.095  -1.725  49.920  1.00  0.00    -0.027 A 
ATOM      5  C   UNL     1      31.607  -1.653  50.235  1.00  0.00     0.046 C 
ATOM      6  C   UNL     1      33.932  -0.622  50.079  1.00  0.00     0.045 A 
ATOM      7  C   UNL     1      35.293  -0.717  49.763  1.00  0.00     0.040 A 
ENDROOT
BRANCH   1   8
ATOM      8  C   UNL     1      37.327  -1.878  49.100  1.00  0.00     0.255 C 
ATOM      9  O   UNL     1      37.728  -2.306  48.045  1.00  0.00    -0.269 OA
ATOM     10  N   UNL     1      38.032  -1.198  50.017  1.00  0.00    -0.322 N 
ATOM     11  H   UNL     1      37.503  -0.776  50.794  1.00  0.00     0.170 HD
BRANCH  10  12
ATOM     12  C   UNL     1      39.408  -1.013  50.016  1.00  0.00     0.044 A 
ATOM     13  C   UNL     1      39.986   0.141  49.430  1.00  0.00     0.052 A 
ATOM     14  C   UNL     1      40.270  -2.026  50.489  1.00  0.00     0.039 A 
ATOM     15  C   UNL     1      41.369   0.342  49.433  1.00  0.00     0.049 A 
ATOM     16  C   UNL     1      41.678  -1.810  50.511  1.00  0.00     0.060 A 
ATOM     17  C   UNL     1      42.203  -0.644  49.951  1.00  0.00     0.039 A 
BRANCH  15  18
ATOM     18  N   UNL     1      41.948   1.500  48.894  1.00  0.00    -0.306 N 
ATOM     19  C   UNL     1      43.259   1.709  48.471  1.00  0.00     0.116 A 
ATOM     20  C   UNL     1      41.366   2.698  48.758  1.00  0.00     0.204 A 
ATOM     21  C   UNL     1      43.384   3.003  48.105  1.00  0.00     0.056 A 
ATOM     22  N   UNL     1      42.180   3.597  48.261  1.00  0.00    -0.242 NA
ATOM     23  C   UNL     1      44.608   3.701  47.561  1.00  0.00     0.068 C 
ENDBRANCH  15  18
BRANCH  16  24
ATOM     24  C   UNL     1      42.562  -2.875  51.074  1.00  0.00     0.416 C 
ATOM     25  F   UNL     1      42.254  -3.269  52.326  1.00  0.00    -0.166 F 
ATOM     26  F   UNL     1      42.439  -4.008  50.391  1.00  0.00    -0.166 F 
ATOM     27  F   UNL     1      43.846  -2.474  51.178  1.00  0.00    -0.166 F 
ENDBRANCH  16  24
ENDBRANCH  10  12
ENDBRANCH   1   8
BRANCH   6  28
ATOM     28  N   UNL     1      33.350   0.622  50.355  1.00  0.00    -0.324 N 
ATOM     29  H   UNL     1      33.053   1.239  49.586  1.00  0.00     0.170 HD
BRANCH  28  30
ATOM     30  C   UNL     1      33.175   1.019  51.683  1.00  0.00     0.227 A 
ATOM     31  N   UNL     1      33.883   1.889  52.391  1.00  0.00    -0.221 NA
ATOM     32  N   UNL     1      32.159   0.283  52.202  1.00  0.00    -0.213 NA
ATOM     33  C   UNL     1      33.525   2.056  53.678  1.00  0.00     0.117 A 
ATOM     34  C   UNL     1      31.861   0.461  53.495  1.00  0.00     0.077 A 
ATOM     35  C   UNL     1      32.540   1.348  54.253  1.00  0.00     0.049 A 
BRANCH  34  36
ATOM     36  C   UNL     1      30.719  -0.342  54.006  1.00  0.00     0.019 A 
ATOM     37  C   UNL     1      29.618   0.262  54.634  1.00  0.00     0.013 A 
ATOM     38  C   UNL     1      30.720  -1.745  53.885  1.00  0.00     0.121 A 
ATOM     39  C   UNL     1      28.591  -0.540  55.115  1.00  0.00     0.021 A 
ATOM     40  N   UNL     1      29.737  -2.525  54.354  1.00  0.00    -0.264 NA
ATOM     41  C   UNL     1      28.685  -1.919  54.928  1.00  0.00     0.111 A 
ENDBRANCH  34  36
ENDBRANCH  28  30
ENDBRANCH   6  28
TORSDOF 7
ENDMDL
MODEL 19
REMARK VINA RESULT:   -10.308      3.428     11.136
REMARK INTER + INTRA:         -13.671
REMARK INTER:                 -12.397
REMARK INTRA:                  -1.274
REMARK CONF_INDEPENDENT:        2.088
REMARK UNBOUND:                -1.274
REMARK SMILES Cc1cn(-c2cc(NC(=O)c3ccc(C)c(Nc4nccc(-c5cccnc5)n4)c3)cc(C(F)(F)F)c2)cn1
REMARK SMILES IDX 11 1 12 2 13 3 14 4 15 5 16 6 30 7 9 8 10 9 8 10 7 12 6 13
REMARK SMILES IDX 31 14 5 15 32 16 37 17 4 18 3 19 38 20 2 21 39 22 1 23 33 24
REMARK SMILES IDX 34 25 35 26 36 27 17 28 18 30 19 31 29 32 20 33 22 34 21 35
REMARK SMILES IDX 23 36 24 37 28 38 25 39 27 40 26 41
REMARK H PARENT 8 11 17 29
ROOT
ATOM      1  C   UNL     1      25.605   3.804  51.223  1.00  0.00     0.042 A 
ATOM      2  C   UNL     1      25.338   3.598  49.862  1.00  0.00     0.014 A 
ATOM      3  C   UNL     1      24.420   4.391  49.173  1.00  0.00     0.006 A 
ATOM      4  C   UNL     1      23.675   5.360  49.826  1.00  0.00    -0.027 A 
ATOM      5  C   UNL     1      22.672   6.214  49.063  1.00  0.00     0.046 C 
ATOM      6  C   UNL     1      23.861   5.501  51.200  1.00  0.00     0.045 A 
ATOM      7  C   UNL     1      24.806   4.711  51.869  1.00  0.00     0.040 A 
ENDROOT
BRANCH   1   8
ATOM      8  C   UNL     1      26.461   2.936  52.056  1.00  0.00     0.255 C 
ATOM      9  O   UNL     1      26.039   2.700  53.162  1.00  0.00    -0.269 OA
ATOM     10  N   UNL     1      27.464   2.311  51.422  1.00  0.00    -0.322 N 
ATOM     11  H   UNL     1      27.600   2.535  50.426  1.00  0.00     0.170 HD
BRANCH  10  12
ATOM     12  C   UNL     1      28.337   1.389  51.986  1.00  0.00     0.044 A 
ATOM     13  C   UNL     1      29.551   1.047  51.340  1.00  0.00     0.052 A 
ATOM     14  C   UNL     1      27.978   0.683  53.155  1.00  0.00     0.039 A 
ATOM     15  C   UNL     1      30.440   0.128  51.905  1.00  0.00     0.049 A 
ATOM     16  C   UNL     1      28.895  -0.237  53.741  1.00  0.00     0.060 A 
ATOM     17  C   UNL     1      30.095  -0.522  53.085  1.00  0.00     0.039 A 
BRANCH  15  18
ATOM     18  N   UNL     1      31.663  -0.186  51.294  1.00  0.00    -0.306 N 
ATOM     19  C   UNL     1      31.971  -1.249  50.447  1.00  0.00     0.116 A 
ATOM     20  C   UNL     1      32.833   0.435  51.479  1.00  0.00     0.204 A 
ATOM     21  C   UNL     1      33.293  -1.200  50.172  1.00  0.00     0.056 A 
ATOM     22  N   UNL     1      33.808  -0.120  50.801  1.00  0.00    -0.242 NA
ATOM     23  C   UNL     1      34.093  -2.125  49.287  1.00  0.00     0.068 C 
ENDBRANCH  15  18
BRANCH  16  24
ATOM     24  C   UNL     1      28.514  -0.925  55.011  1.00  0.00     0.416 C 
ATOM     25  F   UNL     1      29.508  -1.615  55.605  1.00  0.00    -0.166 F 
ATOM     26  F   UNL     1      28.189  -0.046  55.951  1.00  0.00    -0.166 F 
ATOM     27  F   UNL     1      27.556  -1.856  54.822  1.00  0.00    -0.166 F 
ENDBRANCH  16  24
ENDBRANCH  10  12
ENDBRANCH   1   8
BRANCH   6  28
ATOM     28  N   UNL     1      23.244   6.577  51.850  1.00  0.00    -0.324 N 
ATOM     29  H   UNL     1      23.080   7.462  51.349  1.00  0.00     0.170 HD
BRANCH  28  30
ATOM     30  C   UNL     1      22.851   6.441  53.183  1.00  0.00     0.227 A 
ATOM     31  N   UNL     1      21.630   6.284  53.679  1.00  0.00    -0.221 NA
ATOM     32  N   UNL     1      23.959   6.576  53.955  1.00  0.00    -0.213 NA
ATOM     33  C   UNL     1      21.525   6.221  55.020  1.00  0.00     0.117 A 
ATOM     34  C   UNL     1      23.800   6.539  55.283  1.00  0.00     0.077 A 
ATOM     35  C   UNL     1      22.581   6.364  55.836  1.00  0.00     0.049 A 
BRANCH  34  36
ATOM     36  C   UNL     1      25.048   6.656  56.083  1.00  0.00     0.019 A 
ATOM     37  C   UNL     1      25.017   6.967  57.452  1.00  0.00     0.013 A 
ATOM     38  C   UNL     1      26.306   6.472  55.477  1.00  0.00     0.121 A 
ATOM     39  C   UNL     1      26.216   7.088  58.143  1.00  0.00     0.021 A 
ATOM     40  N   UNL     1      27.465   6.596  56.136  1.00  0.00    -0.264 NA
ATOM     41  C   UNL     1      27.406   6.868  57.450  1.00  0.00     0.111 A 
ENDBRANCH  34  36
ENDBRANCH  28  30
ENDBRANCH   6  28
TORSDOF 7
ENDMDL
MODEL 20
REMARK VINA RESULT:   -10.264      8.414     14.862
REMARK INTER + INTRA:         -13.672
REMARK INTER:                 -12.353
REMARK INTRA:                  -1.319
REMARK CONF_INDEPENDENT:        2.088
REMARK UNBOUND:                -1.319
REMARK SMILES Cc1cn(-c2cc(NC(=O)c3ccc(C)c(Nc4nccc(-c5cccnc5)n4)c3)cc(C(F)(F)F)c2)cn1
REMARK SMILES IDX 11 1 12 2 13 3 14 4 15 5 16 6 30 7 9 8 10 9 8 10 7 12 6 13
REMARK SMILES IDX 31 14 5 15 32 16 37 17 4 18 3 19 38 20 2 21 39 22 1 23 33 24
REMARK SMILES IDX 34 25 35 26 36 27 17 28 18 30 19 31 29 32 20 33 22 34 21 35
REMARK SMILES IDX 23 36 24 37 28 38 25 39 27 40 26 41
REMARK H PARENT 8 11 17 29
ROOT
ATOM      1  C   UNL     1      36.021  -1.606  49.176  1.00  0.00     0.042 A 
ATOM      2  C   UNL     1      35.305  -2.811  49.122  1.00  0.00     0.014 A 
ATOM      3  C   UNL     1      33.943  -2.862  49.423  1.00  0.00     0.006 A 
ATOM      4  C   UNL     1      33.264  -1.739  49.868  1.00  0.00    -0.027 A 
ATOM      5  C   UNL     1      31.780  -1.811  50.200  1.00  0.00     0.046 C 
ATOM      6  C   UNL     1      33.993  -0.562  50.023  1.00  0.00     0.045 A 
ATOM      7  C   UNL     1      35.354  -0.526  49.692  1.00  0.00     0.040 A 
ENDROOT
BRANCH   1   8
ATOM      8  C   UNL     1      37.482  -1.484  48.998  1.00  0.00     0.255 C 
ATOM      9  O   UNL     1      38.092  -1.110  49.970  1.00  0.00    -0.269 OA
ATOM     10  N   UNL     1      37.990  -2.032  47.884  1.00  0.00    -0.322 N 
ATOM     11  H   UNL     1      37.320  -2.432  47.213  1.00  0.00     0.170 HD
BRANCH  10  12
ATOM     12  C   UNL     1      39.337  -2.107  47.554  1.00  0.00     0.044 A 
ATOM     13  C   UNL     1      40.142  -0.942  47.511  1.00  0.00     0.052 A 
ATOM     14  C   UNL     1      39.906  -3.330  47.135  1.00  0.00     0.039 A 
ATOM     15  C   UNL     1      41.500  -1.009  47.189  1.00  0.00     0.049 A 
ATOM     16  C   UNL     1      41.295  -3.400  46.830  1.00  0.00     0.060 A 
ATOM     17  C   UNL     1      42.059  -2.231  46.829  1.00  0.00     0.039 A 
BRANCH  15  18
ATOM     18  N   UNL     1      42.315   0.133  47.185  1.00  0.00    -0.306 N 
ATOM     19  C   UNL     1      42.129   1.344  47.849  1.00  0.00     0.116 A 
ATOM     20  C   UNL     1      43.418   0.328  46.452  1.00  0.00     0.204 A 
ATOM     21  C   UNL     1      43.122   2.183  47.483  1.00  0.00     0.056 A 
ATOM     22  N   UNL     1      43.936   1.518  46.634  1.00  0.00    -0.242 NA
ATOM     23  C   UNL     1      43.361   3.599  47.949  1.00  0.00     0.068 C 
ENDBRANCH  15  18
BRANCH  16  24
ATOM     24  C   UNL     1      41.884  -4.720  46.448  1.00  0.00     0.416 C 
ATOM     25  F   UNL     1      42.412  -4.771  45.209  1.00  0.00    -0.166 F 
ATOM     26  F   UNL     1      42.934  -5.011  47.207  1.00  0.00    -0.166 F 
ATOM     27  F   UNL     1      40.965  -5.708  46.438  1.00  0.00    -0.166 F 
ENDBRANCH  16  24
ENDBRANCH  10  12
ENDBRANCH   1   8
BRANCH   6  28
ATOM     28  N   UNL     1      33.299   0.620  50.314  1.00  0.00    -0.324 N 
ATOM     29  H   UNL     1      32.903   1.190  49.553  1.00  0.00     0.170 HD
BRANCH  28  30
ATOM     30  C   UNL     1      33.147   1.018  51.643  1.00  0.00     0.227 A 
ATOM     31  N   UNL     1      33.865   1.891  52.338  1.00  0.00    -0.221 NA
ATOM     32  N   UNL     1      32.141   0.281  52.182  1.00  0.00    -0.213 NA
ATOM     33  C   UNL     1      33.529   2.059  53.631  1.00  0.00     0.117 A 
ATOM     34  C   UNL     1      31.865   0.460  53.478  1.00  0.00     0.077 A 
ATOM     35  C   UNL     1      32.556   1.349  54.224  1.00  0.00     0.049 A 
BRANCH  34  36
ATOM     36  C   UNL     1      30.733  -0.344  54.011  1.00  0.00     0.019 A 
ATOM     37  C   UNL     1      29.704   0.244  54.765  1.00  0.00     0.013 A 
ATOM     38  C   UNL     1      30.672  -1.732  53.782  1.00  0.00     0.121 A 
ATOM     39  C   UNL     1      28.685  -0.561  55.258  1.00  0.00     0.021 A 
ATOM     40  N   UNL     1      29.697  -2.514  54.262  1.00  0.00    -0.264 NA
ATOM     41  C   UNL     1      28.712  -1.923  54.958  1.00  0.00     0.111 A 
ENDBRANCH  34  36
ENDBRANCH  28  30
ENDBRANCH   6  28
TORSDOF 7
ENDMDL
