MODEL 1
REMARK VINA RESULT:   -14.405      0.000      0.000
REMARK INTER + INTRA:         -17.668
REMARK INTER:                 -16.493
REMARK INTRA:                  -1.174
REMARK CONF_INDEPENDENT:        2.088
REMARK UNBOUND:                -1.174
REMARK SMILES Cc1cn(-c2cc(NC(=O)c3ccc(C)c(Nc4nccc(-c5cccnc5)n4)c3)cc(C(F)(F)F)c2)cn1
REMARK SMILES IDX 11 1 12 2 13 3 14 4 15 5 16 6 30 7 9 8 10 9 8 10 7 12 6 13
REMARK SMILES IDX 31 14 5 15 32 16 37 17 4 18 3 19 38 20 2 21 39 22 1 23 33 24
REMARK SMILES IDX 34 25 35 26 36 27 17 28 18 30 19 31 29 32 20 33 22 34 21 35
REMARK SMILES IDX 23 36 24 37 28 38 25 39 27 40 26 41
REMARK H PARENT 8 11 17 29
ROOT
ATOM      1  C   UNL     1      27.978   1.735  53.066  1.00  0.00     0.042 A 
ATOM      2  C   UNL     1      27.683   1.196  54.327  1.00  0.00     0.014 A 
ATOM      3  C   UNL     1      28.393   0.107  54.836  1.00  0.00     0.006 A 
ATOM      4  C   UNL     1      29.360  -0.536  54.081  1.00  0.00    -0.027 A 
ATOM      5  C   UNL     1      30.121  -1.727  54.646  1.00  0.00     0.046 C 
ATOM      6  C   UNL     1      29.586  -0.070  52.787  1.00  0.00     0.045 A 
ATOM      7  C   UNL     1      28.880   1.040  52.304  1.00  0.00     0.040 A 
ENDROOT
BRANCH   1   8
ATOM      8  C   UNL     1      27.199   2.797  52.400  1.00  0.00     0.255 C 
ATOM      9  O   UNL     1      27.519   3.039  51.261  1.00  0.00    -0.269 OA
ATOM     10  N   UNL     1      26.081   3.193  53.027  1.00  0.00    -0.322 N 
ATOM     11  H   UNL     1      25.890   2.776  53.949  1.00  0.00     0.170 HD
BRANCH  10  12
ATOM     12  C   UNL     1      25.158   4.113  52.546  1.00  0.00     0.044 A 
ATOM     13  C   UNL     1      24.241   4.748  53.421  1.00  0.00     0.052 A 
ATOM     14  C   UNL     1      25.032   4.347  51.159  1.00  0.00     0.039 A 
ATOM     15  C   UNL     1      23.316   5.683  52.948  1.00  0.00     0.049 A 
ATOM     16  C   UNL     1      24.104   5.316  50.683  1.00  0.00     0.060 A 
ATOM     17  C   UNL     1      23.239   5.941  51.584  1.00  0.00     0.039 A 
BRANCH  15  18
ATOM     18  N   UNL     1      22.432   6.348  53.812  1.00  0.00    -0.306 N 
ATOM     19  C   UNL     1      22.109   6.049  55.134  1.00  0.00     0.116 A 
ATOM     20  C   UNL     1      21.633   7.376  53.504  1.00  0.00     0.204 A 
ATOM     21  C   UNL     1      21.149   6.908  55.538  1.00  0.00     0.056 A 
ATOM     22  N   UNL     1      20.888   7.751  54.515  1.00  0.00    -0.242 NA
ATOM     23  C   UNL     1      20.489   6.994  56.894  1.00  0.00     0.068 C 
ENDBRANCH  15  18
BRANCH  16  24
ATOM     24  C   UNL     1      24.034   5.586  49.215  1.00  0.00     0.416 C 
ATOM     25  F   UNL     1      24.819   6.593  48.783  1.00  0.00    -0.166 F 
ATOM     26  F   UNL     1      24.499   4.557  48.517  1.00  0.00    -0.166 F 
ATOM     27  F   UNL     1      22.799   5.961  48.821  1.00  0.00    -0.166 F 
ENDBRANCH  16  24
ENDBRANCH  10  12
ENDBRANCH   1   8
BRANCH   6  28
ATOM     28  N   UNL     1      30.666  -0.597  52.067  1.00  0.00    -0.324 N 
ATOM     29  H   UNL     1      30.528  -1.400  51.438  1.00  0.00     0.170 HD
BRANCH  28  30
ATOM     30  C   UNL     1      31.931  -0.023  52.210  1.00  0.00     0.227 A 
ATOM     31  N   UNL     1      32.319   0.943  53.032  1.00  0.00    -0.221 NA
ATOM     32  N   UNL     1      32.743  -0.579  51.274  1.00  0.00    -0.213 NA
ATOM     33  C   UNL     1      33.601   1.344  52.933  1.00  0.00     0.117 A 
ATOM     34  C   UNL     1      33.999  -0.126  51.192  1.00  0.00     0.077 A 
ATOM     35  C   UNL     1      34.447   0.844  52.019  1.00  0.00     0.049 A 
BRANCH  34  36
ATOM     36  C   UNL     1      34.857  -0.790  50.176  1.00  0.00     0.019 A 
ATOM     37  C   UNL     1      36.206  -0.437  50.008  1.00  0.00     0.013 A 
ATOM     38  C   UNL     1      34.328  -1.791  49.338  1.00  0.00     0.121 A 
ATOM     39  C   UNL     1      36.952  -1.074  49.026  1.00  0.00     0.021 A 
ATOM     40  N   UNL     1      35.041  -2.403  48.383  1.00  0.00    -0.264 NA
ATOM     41  C   UNL     1      36.335  -2.064  48.261  1.00  0.00     0.111 A 
ENDBRANCH  34  36
ENDBRANCH  28  30
ENDBRANCH   6  28
TORSDOF 7
ENDMDL
MODEL 2
REMARK VINA RESULT:   -13.157      2.333      3.592
REMARK INTER + INTRA:         -16.473
REMARK INTER:                 -15.245
REMARK INTRA:                  -1.228
REMARK CONF_INDEPENDENT:        2.088
REMARK UNBOUND:                -1.228
REMARK SMILES Cc1cn(-c2cc(NC(=O)c3ccc(C)c(Nc4nccc(-c5cccnc5)n4)c3)cc(C(F)(F)F)c2)cn1
REMARK SMILES IDX 11 1 12 2 13 3 14 4 15 5 16 6 30 7 9 8 10 9 8 10 7 12 6 13
REMARK SMILES IDX 31 14 5 15 32 16 37 17 4 18 3 19 38 20 2 21 39 22 1 23 33 24
REMARK SMILES IDX 34 25 35 26 36 27 17 28 18 30 19 31 29 32 20 33 22 34 21 35
REMARK SMILES IDX 23 36 24 37 28 38 25 39 27 40 26 41
REMARK H PARENT 8 11 17 29
ROOT
ATOM      1  C   UNL     1      28.457   1.494  53.340  1.00  0.00     0.042 A 
ATOM      2  C   UNL     1      28.221   0.895  54.587  1.00  0.00     0.014 A 
ATOM      3  C   UNL     1      28.955  -0.213  55.011  1.00  0.00     0.006 A 
ATOM      4  C   UNL     1      29.887  -0.817  54.184  1.00  0.00    -0.027 A 
ATOM      5  C   UNL     1      30.675  -2.031  54.657  1.00  0.00     0.046 C 
ATOM      6  C   UNL     1      30.053  -0.290  52.904  1.00  0.00     0.045 A 
ATOM      7  C   UNL     1      29.325   0.838  52.506  1.00  0.00     0.040 A 
ENDROOT
BRANCH   1   8
ATOM      8  C   UNL     1      27.647   2.583  52.761  1.00  0.00     0.255 C 
ATOM      9  O   UNL     1      27.923   2.887  51.626  1.00  0.00    -0.269 OA
ATOM     10  N   UNL     1      26.551   2.936  53.449  1.00  0.00    -0.322 N 
ATOM     11  H   UNL     1      26.397   2.469  54.354  1.00  0.00     0.170 HD
BRANCH  10  12
ATOM     12  C   UNL     1      25.605   3.873  53.053  1.00  0.00     0.044 A 
ATOM     13  C   UNL     1      25.191   3.962  51.700  1.00  0.00     0.052 A 
ATOM     14  C   UNL     1      25.123   4.837  53.965  1.00  0.00     0.039 A 
ATOM     15  C   UNL     1      24.233   4.894  51.294  1.00  0.00     0.049 A 
ATOM     16  C   UNL     1      24.130   5.772  53.554  1.00  0.00     0.060 A 
ATOM     17  C   UNL     1      23.729   5.805  52.217  1.00  0.00     0.039 A 
BRANCH  15  18
ATOM     18  N   UNL     1      23.786   4.963  49.966  1.00  0.00    -0.306 N 
ATOM     19  C   UNL     1      22.677   5.628  49.448  1.00  0.00     0.116 A 
ATOM     20  C   UNL     1      24.297   4.311  48.914  1.00  0.00     0.204 A 
ATOM     21  C   UNL     1      22.591   5.344  48.130  1.00  0.00     0.056 A 
ATOM     22  N   UNL     1      23.633   4.545  47.809  1.00  0.00    -0.242 NA
ATOM     23  C   UNL     1      21.571   5.844  47.136  1.00  0.00     0.068 C 
ENDBRANCH  15  18
BRANCH  16  24
ATOM     24  C   UNL     1      23.594   6.742  54.556  1.00  0.00     0.416 C 
ATOM     25  F   UNL     1      23.804   6.405  55.844  1.00  0.00    -0.166 F 
ATOM     26  F   UNL     1      24.220   7.910  54.472  1.00  0.00    -0.166 F 
ATOM     27  F   UNL     1      22.253   6.869  54.480  1.00  0.00    -0.166 F 
ENDBRANCH  16  24
ENDBRANCH  10  12
ENDBRANCH   1   8
BRANCH   6  28
ATOM     28  N   UNL     1      31.100  -0.779  52.112  1.00  0.00    -0.324 N 
ATOM     29  H   UNL     1      30.942  -1.573  51.475  1.00  0.00     0.170 HD
BRANCH  28  30
ATOM     30  C   UNL     1      32.359  -0.182  52.193  1.00  0.00     0.227 A 
ATOM     31  N   UNL     1      32.752   0.832  52.954  1.00  0.00    -0.221 NA
ATOM     32  N   UNL     1      33.156  -0.774  51.267  1.00  0.00    -0.213 NA
ATOM     33  C   UNL     1      34.025   1.245  52.802  1.00  0.00     0.117 A 
ATOM     34  C   UNL     1      34.403  -0.308  51.131  1.00  0.00     0.077 A 
ATOM     35  C   UNL     1      34.856   0.710  51.894  1.00  0.00     0.049 A 
BRANCH  34  36
ATOM     36  C   UNL     1      35.246  -1.012  50.130  1.00  0.00     0.019 A 
ATOM     37  C   UNL     1      36.486  -0.497  49.720  1.00  0.00     0.013 A 
ATOM     38  C   UNL     1      34.810  -2.220  49.550  1.00  0.00     0.121 A 
ATOM     39  C   UNL     1      37.220  -1.186  48.762  1.00  0.00     0.021 A 
ATOM     40  N   UNL     1      35.509  -2.884  48.621  1.00  0.00    -0.264 NA
ATOM     41  C   UNL     1      36.703  -2.382  48.266  1.00  0.00     0.111 A 
ENDBRANCH  34  36
ENDBRANCH  28  30
ENDBRANCH   6  28
TORSDOF 7
ENDMDL
MODEL 3
REMARK VINA RESULT:   -12.332      1.199      1.876
REMARK INTER + INTRA:         -15.881
REMARK INTER:                 -14.420
REMARK INTRA:                  -1.461
REMARK CONF_INDEPENDENT:        2.088
REMARK UNBOUND:                -1.461
REMARK SMILES Cc1cn(-c2cc(NC(=O)c3ccc(C)c(Nc4nccc(-c5cccnc5)n4)c3)cc(C(F)(F)F)c2)cn1
REMARK SMILES IDX 11 1 12 2 13 3 14 4 15 5 16 6 30 7 9 8 10 9 8 10 7 12 6 13
REMARK SMILES IDX 31 14 5 15 32 16 37 17 4 18 3 19 38 20 2 21 39 22 1 23 33 24
REMARK SMILES IDX 34 25 35 26 36 27 17 28 18 30 19 31 29 32 20 33 22 34 21 35
REMARK SMILES IDX 23 36 24 37 28 38 25 39 27 40 26 41
REMARK H PARENT 8 11 17 29
ROOT
ATOM      1  C   UNL     1      28.172   1.836  53.133  1.00  0.00     0.042 A 
ATOM      2  C   UNL     1      27.779   0.511  53.372  1.00  0.00     0.014 A 
ATOM      3  C   UNL     1      28.645  -0.408  53.968  1.00  0.00     0.006 A 
ATOM      4  C   UNL     1      29.954  -0.070  54.269  1.00  0.00    -0.027 A 
ATOM      5  C   UNL     1      30.890  -1.085  54.911  1.00  0.00     0.046 C 
ATOM      6  C   UNL     1      30.382   1.215  53.939  1.00  0.00     0.045 A 
ATOM      7  C   UNL     1      29.490   2.130  53.365  1.00  0.00     0.040 A 
ENDROOT
BRANCH   1   8
ATOM      8  C   UNL     1      27.370   2.834  52.398  1.00  0.00     0.255 C 
ATOM      9  O   UNL     1      27.715   3.038  51.259  1.00  0.00    -0.269 OA
ATOM     10  N   UNL     1      26.218   3.208  52.974  1.00  0.00    -0.322 N 
ATOM     11  H   UNL     1      26.016   2.825  53.908  1.00  0.00     0.170 HD
BRANCH  10  12
ATOM     12  C   UNL     1      25.273   4.066  52.426  1.00  0.00     0.044 A 
ATOM     13  C   UNL     1      24.331   4.732  53.249  1.00  0.00     0.052 A 
ATOM     14  C   UNL     1      25.152   4.201  51.026  1.00  0.00     0.039 A 
ATOM     15  C   UNL     1      23.383   5.604  52.708  1.00  0.00     0.049 A 
ATOM     16  C   UNL     1      24.200   5.107  50.478  1.00  0.00     0.060 A 
ATOM     17  C   UNL     1      23.309   5.767  51.328  1.00  0.00     0.039 A 
BRANCH  15  18
ATOM     18  N   UNL     1      22.473   6.300  53.519  1.00  0.00    -0.306 N 
ATOM     19  C   UNL     1      22.259   6.188  54.891  1.00  0.00     0.116 A 
ATOM     20  C   UNL     1      21.540   7.170  53.112  1.00  0.00     0.204 A 
ATOM     21  C   UNL     1      21.225   6.991  55.225  1.00  0.00     0.056 A 
ATOM     22  N   UNL     1      20.811   7.621  54.103  1.00  0.00    -0.242 NA
ATOM     23  C   UNL     1      20.634   7.224  56.594  1.00  0.00     0.068 C 
ENDBRANCH  15  18
BRANCH  16  24
ATOM     24  C   UNL     1      24.134   5.275  48.995  1.00  0.00     0.416 C 
ATOM     25  F   UNL     1      24.577   4.221  48.282  1.00  0.00    -0.166 F 
ATOM     26  F   UNL     1      22.876   5.377  48.581  1.00  0.00    -0.166 F 
ATOM     27  F   UNL     1      24.904   6.294  48.559  1.00  0.00    -0.166 F 
ENDBRANCH  16  24
ENDBRANCH  10  12
ENDBRANCH   1   8
BRANCH   6  28
ATOM     28  N   UNL     1      31.645   1.631  54.380  1.00  0.00    -0.324 N 
ATOM     29  H   UNL     1      31.731   2.251  55.198  1.00  0.00     0.170 HD
BRANCH  28  30
ATOM     30  C   UNL     1      32.786   1.199  53.702  1.00  0.00     0.227 A 
ATOM     31  N   UNL     1      34.061   1.448  53.974  1.00  0.00    -0.221 NA
ATOM     32  N   UNL     1      32.377   0.505  52.608  1.00  0.00    -0.213 NA
ATOM     33  C   UNL     1      34.972   0.940  53.123  1.00  0.00     0.117 A 
ATOM     34  C   UNL     1      33.318   0.047  51.775  1.00  0.00     0.077 A 
ATOM     35  C   UNL     1      34.630   0.259  52.018  1.00  0.00     0.049 A 
BRANCH  34  36
ATOM     36  C   UNL     1      32.821  -0.736  50.613  1.00  0.00     0.019 A 
ATOM     37  C   UNL     1      31.448  -0.891  50.364  1.00  0.00     0.013 A 
ATOM     38  C   UNL     1      33.726  -1.361  49.732  1.00  0.00     0.121 A 
ATOM     39  C   UNL     1      31.042  -1.654  49.277  1.00  0.00     0.021 A 
ATOM     40  N   UNL     1      33.340  -2.105  48.688  1.00  0.00    -0.264 NA
ATOM     41  C   UNL     1      32.021  -2.215  48.458  1.00  0.00     0.111 A 
ENDBRANCH  34  36
ENDBRANCH  28  30
ENDBRANCH   6  28
TORSDOF 7
ENDMDL
MODEL 4
REMARK VINA RESULT:   -12.193      1.516      3.615
REMARK INTER + INTRA:         -15.878
REMARK INTER:                 -14.281
REMARK INTRA:                  -1.597
REMARK CONF_INDEPENDENT:        2.088
REMARK UNBOUND:                -1.597
REMARK SMILES Cc1cn(-c2cc(NC(=O)c3ccc(C)c(Nc4nccc(-c5cccnc5)n4)c3)cc(C(F)(F)F)c2)cn1
REMARK SMILES IDX 11 1 12 2 13 3 14 4 15 5 16 6 30 7 9 8 10 9 8 10 7 12 6 13
REMARK SMILES IDX 31 14 5 15 32 16 37 17 4 18 3 19 38 20 2 21 39 22 1 23 33 24
REMARK SMILES IDX 34 25 35 26 36 27 17 28 18 30 19 31 29 32 20 33 22 34 21 35
REMARK SMILES IDX 23 36 24 37 28 38 25 39 27 40 26 41
REMARK H PARENT 8 11 17 29
ROOT
ATOM      1  C   UNL     1      27.659   1.706  52.831  1.00  0.00     0.042 A 
ATOM      2  C   UNL     1      27.392   1.133  54.083  1.00  0.00     0.014 A 
ATOM      3  C   UNL     1      28.107   0.026  54.543  1.00  0.00     0.006 A 
ATOM      4  C   UNL     1      29.050  -0.602  53.745  1.00  0.00    -0.027 A 
ATOM      5  C   UNL     1      29.816  -1.814  54.256  1.00  0.00     0.046 C 
ATOM      6  C   UNL     1      29.245  -0.100  52.459  1.00  0.00     0.045 A 
ATOM      7  C   UNL     1      28.536   1.027  52.026  1.00  0.00     0.040 A 
ENDROOT
BRANCH   1   8
ATOM      8  C   UNL     1      26.871   2.793  52.215  1.00  0.00     0.255 C 
ATOM      9  O   UNL     1      27.088   2.991  51.045  1.00  0.00    -0.269 OA
ATOM     10  N   UNL     1      25.842   3.260  52.939  1.00  0.00    -0.322 N 
ATOM     11  H   UNL     1      25.723   2.875  53.886  1.00  0.00     0.170 HD
BRANCH  10  12
ATOM     12  C   UNL     1      24.923   4.217  52.526  1.00  0.00     0.044 A 
ATOM     13  C   UNL     1      24.054   4.838  53.456  1.00  0.00     0.052 A 
ATOM     14  C   UNL     1      24.751   4.502  51.154  1.00  0.00     0.039 A 
ATOM     15  C   UNL     1      23.132   5.809  53.053  1.00  0.00     0.049 A 
ATOM     16  C   UNL     1      23.827   5.507  50.747  1.00  0.00     0.060 A 
ATOM     17  C   UNL     1      23.010   6.118  51.702  1.00  0.00     0.039 A 
BRANCH  15  18
ATOM     18  N   UNL     1      22.296   6.461  53.972  1.00  0.00    -0.306 N 
ATOM     19  C   UNL     1      21.952   6.078  55.267  1.00  0.00     0.116 A 
ATOM     20  C   UNL     1      21.570   7.563  53.752  1.00  0.00     0.204 A 
ATOM     21  C   UNL     1      21.054   6.966  55.745  1.00  0.00     0.056 A 
ATOM     22  N   UNL     1      20.852   7.906  54.794  1.00  0.00    -0.242 NA
ATOM     23  C   UNL     1      20.401   6.987  57.106  1.00  0.00     0.068 C 
ENDBRANCH  15  18
BRANCH  16  24
ATOM     24  C   UNL     1      23.709   5.832  49.293  1.00  0.00     0.416 C 
ATOM     25  F   UNL     1      23.239   4.831  48.523  1.00  0.00    -0.166 F 
ATOM     26  F   UNL     1      22.805   6.784  49.089  1.00  0.00    -0.166 F 
ATOM     27  F   UNL     1      24.901   6.125  48.735  1.00  0.00    -0.166 F 
ENDBRANCH  16  24
ENDBRANCH  10  12
ENDBRANCH   1   8
BRANCH   6  28
ATOM     28  N   UNL     1      30.303  -0.614  51.697  1.00  0.00    -0.324 N 
ATOM     29  H   UNL     1      30.135  -1.372  51.021  1.00  0.00     0.170 HD
BRANCH  28  30
ATOM     30  C   UNL     1      31.586  -0.088  51.862  1.00  0.00     0.227 A 
ATOM     31  N   UNL     1      32.709  -0.424  51.239  1.00  0.00    -0.221 NA
ATOM     32  N   UNL     1      31.533   0.821  52.869  1.00  0.00    -0.213 NA
ATOM     33  C   UNL     1      33.829   0.217  51.623  1.00  0.00     0.117 A 
ATOM     34  C   UNL     1      32.677   1.409  53.237  1.00  0.00     0.077 A 
ATOM     35  C   UNL     1      33.842   1.114  52.622  1.00  0.00     0.049 A 
BRANCH  34  36
ATOM     36  C   UNL     1      32.560   2.421  54.319  1.00  0.00     0.019 A 
ATOM     37  C   UNL     1      31.487   2.409  55.225  1.00  0.00     0.013 A 
ATOM     38  C   UNL     1      33.525   3.438  54.454  1.00  0.00     0.121 A 
ATOM     39  C   UNL     1      31.416   3.395  56.200  1.00  0.00     0.021 A 
ATOM     40  N   UNL     1      33.457   4.397  55.387  1.00  0.00    -0.264 NA
ATOM     41  C   UNL     1      32.435   4.346  56.256  1.00  0.00     0.111 A 
ENDBRANCH  34  36
ENDBRANCH  28  30
ENDBRANCH   6  28
TORSDOF 7
ENDMDL
MODEL 5
REMARK VINA RESULT:   -11.545      2.510      3.988
REMARK INTER + INTRA:         -14.822
REMARK INTER:                 -13.633
REMARK INTRA:                  -1.189
REMARK CONF_INDEPENDENT:        2.088
REMARK UNBOUND:                -1.189
REMARK SMILES Cc1cn(-c2cc(NC(=O)c3ccc(C)c(Nc4nccc(-c5cccnc5)n4)c3)cc(C(F)(F)F)c2)cn1
REMARK SMILES IDX 11 1 12 2 13 3 14 4 15 5 16 6 30 7 9 8 10 9 8 10 7 12 6 13
REMARK SMILES IDX 31 14 5 15 32 16 37 17 4 18 3 19 38 20 2 21 39 22 1 23 33 24
REMARK SMILES IDX 34 25 35 26 36 27 17 28 18 30 19 31 29 32 20 33 22 34 21 35
REMARK SMILES IDX 23 36 24 37 28 38 25 39 27 40 26 41
REMARK H PARENT 8 11 17 29
ROOT
ATOM      1  C   UNL     1      28.588   1.767  53.426  1.00  0.00     0.042 A 
ATOM      2  C   UNL     1      28.264   1.161  54.649  1.00  0.00     0.014 A 
ATOM      3  C   UNL     1      29.139   0.269  55.273  1.00  0.00     0.006 A 
ATOM      4  C   UNL     1      30.324  -0.116  54.668  1.00  0.00    -0.027 A 
ATOM      5  C   UNL     1      31.265  -1.095  55.356  1.00  0.00     0.046 C 
ATOM      6  C   UNL     1      30.603   0.403  53.404  1.00  0.00     0.045 A 
ATOM      7  C   UNL     1      29.724   1.315  52.807  1.00  0.00     0.040 A 
ENDROOT
BRANCH   1   8
ATOM      8  C   UNL     1      27.674   2.618  52.638  1.00  0.00     0.255 C 
ATOM      9  O   UNL     1      28.012   2.825  51.498  1.00  0.00    -0.269 OA
ATOM     10  N   UNL     1      26.470   2.853  53.180  1.00  0.00    -0.322 N 
ATOM     11  H   UNL     1      26.302   2.480  54.126  1.00  0.00     0.170 HD
BRANCH  10  12
ATOM     12  C   UNL     1      25.429   3.552  52.583  1.00  0.00     0.044 A 
ATOM     13  C   UNL     1      24.852   3.103  51.370  1.00  0.00     0.052 A 
ATOM     14  C   UNL     1      25.004   4.792  53.108  1.00  0.00     0.039 A 
ATOM     15  C   UNL     1      23.798   3.794  50.767  1.00  0.00     0.049 A 
ATOM     16  C   UNL     1      23.915   5.484  52.505  1.00  0.00     0.060 A 
ATOM     17  C   UNL     1      23.354   4.989  51.325  1.00  0.00     0.039 A 
BRANCH  15  18
ATOM     18  N   UNL     1      23.192   3.335  49.588  1.00  0.00    -0.306 N 
ATOM     19  C   UNL     1      22.667   2.074  49.307  1.00  0.00     0.116 A 
ATOM     20  C   UNL     1      23.074   4.003  48.435  1.00  0.00     0.204 A 
ATOM     21  C   UNL     1      22.265   2.062  48.018  1.00  0.00     0.056 A 
ATOM     22  N   UNL     1      22.499   3.288  47.498  1.00  0.00    -0.242 NA
ATOM     23  C   UNL     1      21.616   0.931  47.257  1.00  0.00     0.068 C 
ENDBRANCH  15  18
BRANCH  16  24
ATOM     24  C   UNL     1      23.446   6.764  53.117  1.00  0.00     0.416 C 
ATOM     25  F   UNL     1      23.006   7.688  52.239  1.00  0.00    -0.166 F 
ATOM     26  F   UNL     1      22.370   6.567  53.870  1.00  0.00    -0.166 F 
ATOM     27  F   UNL     1      24.429   7.406  53.781  1.00  0.00    -0.166 F 
ENDBRANCH  16  24
ENDBRANCH  10  12
ENDBRANCH   1   8
BRANCH   6  28
ATOM     28  N   UNL     1      31.864   0.158  52.846  1.00  0.00    -0.324 N 
ATOM     29  H   UNL     1      32.717   0.469  53.333  1.00  0.00     0.170 HD
BRANCH  28  30
ATOM     30  C   UNL     1      31.956  -0.513  51.625  1.00  0.00     0.227 A 
ATOM     31  N   UNL     1      30.988  -1.059  50.900  1.00  0.00    -0.221 NA
ATOM     32  N   UNL     1      33.272  -0.599  51.300  1.00  0.00    -0.213 NA
ATOM     33  C   UNL     1      31.360  -1.690  49.770  1.00  0.00     0.117 A 
ATOM     34  C   UNL     1      33.595  -1.263  50.185  1.00  0.00     0.077 A 
ATOM     35  C   UNL     1      32.645  -1.821  49.404  1.00  0.00     0.049 A 
BRANCH  34  36
ATOM     36  C   UNL     1      35.044  -1.299  49.855  1.00  0.00     0.019 A 
ATOM     37  C   UNL     1      35.622  -2.396  49.197  1.00  0.00     0.013 A 
ATOM     38  C   UNL     1      35.885  -0.226  50.212  1.00  0.00     0.121 A 
ATOM     39  C   UNL     1      36.987  -2.385  48.938  1.00  0.00     0.021 A 
ATOM     40  N   UNL     1      37.202  -0.214  49.972  1.00  0.00    -0.264 NA
ATOM     41  C   UNL     1      37.724  -1.265  49.318  1.00  0.00     0.111 A 
ENDBRANCH  34  36
ENDBRANCH  28  30
ENDBRANCH   6  28
TORSDOF 7
ENDMDL
MODEL 6
REMARK VINA RESULT:   -11.540      4.154     11.205
REMARK INTER + INTRA:         -14.814
REMARK INTER:                 -13.628
REMARK INTRA:                  -1.186
REMARK CONF_INDEPENDENT:        2.088
REMARK UNBOUND:                -1.186
REMARK SMILES Cc1cn(-c2cc(NC(=O)c3ccc(C)c(Nc4nccc(-c5cccnc5)n4)c3)cc(C(F)(F)F)c2)cn1
REMARK SMILES IDX 11 1 12 2 13 3 14 4 15 5 16 6 30 7 9 8 10 9 8 10 7 12 6 13
REMARK SMILES IDX 31 14 5 15 32 16 37 17 4 18 3 19 38 20 2 21 39 22 1 23 33 24
REMARK SMILES IDX 34 25 35 26 36 27 17 28 18 30 19 31 29 32 20 33 22 34 21 35
REMARK SMILES IDX 23 36 24 37 28 38 25 39 27 40 26 41
REMARK H PARENT 8 11 17 29
ROOT
ATOM      1  C   UNL     1      25.810   3.895  52.054  1.00  0.00     0.042 A 
ATOM      2  C   UNL     1      25.212   4.408  50.893  1.00  0.00     0.014 A 
ATOM      3  C   UNL     1      24.102   5.251  50.958  1.00  0.00     0.006 A 
ATOM      4  C   UNL     1      23.495   5.548  52.168  1.00  0.00    -0.027 A 
ATOM      5  C   UNL     1      22.280   6.462  52.224  1.00  0.00     0.046 C 
ATOM      6  C   UNL     1      24.021   4.958  53.316  1.00  0.00     0.045 A 
ATOM      7  C   UNL     1      25.152   4.135  53.232  1.00  0.00     0.040 A 
ENDROOT
BRANCH   1   8
ATOM      8  C   UNL     1      26.901   2.902  52.072  1.00  0.00     0.255 C 
ATOM      9  O   UNL     1      27.575   2.853  51.072  1.00  0.00    -0.269 OA
ATOM     10  N   UNL     1      27.181   2.352  53.264  1.00  0.00    -0.322 N 
ATOM     11  H   UNL     1      26.574   2.614  54.053  1.00  0.00     0.170 HD
BRANCH  10  12
ATOM     12  C   UNL     1      28.214   1.463  53.529  1.00  0.00     0.044 A 
ATOM     13  C   UNL     1      29.521   1.696  53.033  1.00  0.00     0.052 A 
ATOM     14  C   UNL     1      27.959   0.245  54.197  1.00  0.00     0.039 A 
ATOM     15  C   UNL     1      30.569   0.812  53.303  1.00  0.00     0.049 A 
ATOM     16  C   UNL     1      29.033  -0.644  54.491  1.00  0.00     0.060 A 
ATOM     17  C   UNL     1      30.312  -0.359  54.008  1.00  0.00     0.039 A 
BRANCH  15  18
ATOM     18  N   UNL     1      31.875   1.056  52.852  1.00  0.00    -0.306 N 
ATOM     19  C   UNL     1      32.502   0.596  51.696  1.00  0.00     0.116 A 
ATOM     20  C   UNL     1      32.836   1.722  53.503  1.00  0.00     0.204 A 
ATOM     21  C   UNL     1      33.787   1.012  51.718  1.00  0.00     0.056 A 
ATOM     22  N   UNL     1      33.967   1.743  52.841  1.00  0.00    -0.242 NA
ATOM     23  C   UNL     1      34.857   0.781  50.679  1.00  0.00     0.068 C 
ENDBRANCH  15  18
BRANCH  16  24
ATOM     24  C   UNL     1      28.745  -1.897  55.252  1.00  0.00     0.416 C 
ATOM     25  F   UNL     1      27.902  -2.753  54.641  1.00  0.00    -0.166 F 
ATOM     26  F   UNL     1      29.839  -2.636  55.386  1.00  0.00    -0.166 F 
ATOM     27  F   UNL     1      28.140  -1.652  56.433  1.00  0.00    -0.166 F 
ENDBRANCH  16  24
ENDBRANCH  10  12
ENDBRANCH   1   8
BRANCH   6  28
ATOM     28  N   UNL     1      23.530   5.368  54.562  1.00  0.00    -0.324 N 
ATOM     29  H   UNL     1      22.817   4.807  55.050  1.00  0.00     0.170 HD
BRANCH  28  30
ATOM     30  C   UNL     1      24.014   6.544  55.138  1.00  0.00     0.227 A 
ATOM     31  N   UNL     1      24.047   7.769  54.627  1.00  0.00    -0.221 NA
ATOM     32  N   UNL     1      24.551   6.222  56.343  1.00  0.00    -0.213 NA
ATOM     33  C   UNL     1      24.615   8.726  55.386  1.00  0.00     0.117 A 
ATOM     34  C   UNL     1      25.133   7.201  57.046  1.00  0.00     0.077 A 
ATOM     35  C   UNL     1      25.176   8.467  56.577  1.00  0.00     0.049 A 
BRANCH  34  36
ATOM     36  C   UNL     1      25.674   6.804  58.372  1.00  0.00     0.019 A 
ATOM     37  C   UNL     1      24.831   6.384  59.414  1.00  0.00     0.013 A 
ATOM     38  C   UNL     1      27.059   6.856  58.625  1.00  0.00     0.121 A 
ATOM     39  C   UNL     1      25.391   6.049  60.641  1.00  0.00     0.021 A 
ATOM     40  N   UNL     1      27.603   6.543  59.808  1.00  0.00    -0.264 NA
ATOM     41  C   UNL     1      26.777   6.119  60.778  1.00  0.00     0.111 A 
ENDBRANCH  34  36
ENDBRANCH  28  30
ENDBRANCH   6  28
TORSDOF 7
ENDMDL
MODEL 7
REMARK VINA RESULT:   -11.528      3.735     11.785
REMARK INTER + INTRA:         -14.769
REMARK INTER:                 -13.617
REMARK INTRA:                  -1.153
REMARK CONF_INDEPENDENT:        2.088
REMARK UNBOUND:                -1.153
REMARK SMILES Cc1cn(-c2cc(NC(=O)c3ccc(C)c(Nc4nccc(-c5cccnc5)n4)c3)cc(C(F)(F)F)c2)cn1
REMARK SMILES IDX 11 1 12 2 13 3 14 4 15 5 16 6 30 7 9 8 10 9 8 10 7 12 6 13
REMARK SMILES IDX 31 14 5 15 32 16 37 17 4 18 3 19 38 20 2 21 39 22 1 23 33 24
REMARK SMILES IDX 34 25 35 26 36 27 17 28 18 30 19 31 29 32 20 33 22 34 21 35
REMARK SMILES IDX 23 36 24 37 28 38 25 39 27 40 26 41
REMARK H PARENT 8 11 17 29
ROOT
ATOM      1  C   UNL     1      25.888   3.868  51.874  1.00  0.00     0.042 A 
ATOM      2  C   UNL     1      25.275   4.316  50.693  1.00  0.00     0.014 A 
ATOM      3  C   UNL     1      24.160   5.154  50.726  1.00  0.00     0.006 A 
ATOM      4  C   UNL     1      23.564   5.511  51.924  1.00  0.00    -0.027 A 
ATOM      5  C   UNL     1      22.344   6.420  51.944  1.00  0.00     0.046 C 
ATOM      6  C   UNL     1      24.105   4.985  53.097  1.00  0.00     0.045 A 
ATOM      7  C   UNL     1      25.240   4.166  53.044  1.00  0.00     0.040 A 
ENDROOT
BRANCH   1   8
ATOM      8  C   UNL     1      26.986   2.883  51.933  1.00  0.00     0.255 C 
ATOM      9  O   UNL     1      27.700   2.845  50.962  1.00  0.00    -0.269 OA
ATOM     10  N   UNL     1      27.220   2.331  53.133  1.00  0.00    -0.322 N 
ATOM     11  H   UNL     1      26.579   2.584  53.898  1.00  0.00     0.170 HD
BRANCH  10  12
ATOM     12  C   UNL     1      28.249   1.448  53.438  1.00  0.00     0.044 A 
ATOM     13  C   UNL     1      29.565   1.673  52.963  1.00  0.00     0.052 A 
ATOM     14  C   UNL     1      27.981   0.244  54.126  1.00  0.00     0.039 A 
ATOM     15  C   UNL     1      30.608   0.796  53.273  1.00  0.00     0.049 A 
ATOM     16  C   UNL     1      29.050  -0.637  54.459  1.00  0.00     0.060 A 
ATOM     17  C   UNL     1      30.338  -0.361  53.997  1.00  0.00     0.039 A 
BRANCH  15  18
ATOM     18  N   UNL     1      31.922   1.032  52.843  1.00  0.00    -0.306 N 
ATOM     19  C   UNL     1      32.590   0.507  51.738  1.00  0.00     0.116 A 
ATOM     20  C   UNL     1      32.854   1.757  53.474  1.00  0.00     0.204 A 
ATOM     21  C   UNL     1      33.867   0.947  51.769  1.00  0.00     0.056 A 
ATOM     22  N   UNL     1      34.003   1.754  52.844  1.00  0.00    -0.242 NA
ATOM     23  C   UNL     1      34.970   0.666  50.777  1.00  0.00     0.068 C 
ENDBRANCH  15  18
BRANCH  16  24
ATOM     24  C   UNL     1      28.747  -1.874  55.240  1.00  0.00     0.416 C 
ATOM     25  F   UNL     1      27.896  -2.732  54.642  1.00  0.00    -0.166 F 
ATOM     26  F   UNL     1      29.834  -2.623  55.387  1.00  0.00    -0.166 F 
ATOM     27  F   UNL     1      28.144  -1.604  56.416  1.00  0.00    -0.166 F 
ENDBRANCH  16  24
ENDBRANCH  10  12
ENDBRANCH   1   8
BRANCH   6  28
ATOM     28  N   UNL     1      23.624   5.459  54.324  1.00  0.00    -0.324 N 
ATOM     29  H   UNL     1      22.646   5.287  54.599  1.00  0.00     0.170 HD
BRANCH  28  30
ATOM     30  C   UNL     1      24.480   6.165  55.172  1.00  0.00     0.227 A 
ATOM     31  N   UNL     1      25.785   6.369  55.054  1.00  0.00    -0.221 NA
ATOM     32  N   UNL     1      23.753   6.574  56.243  1.00  0.00    -0.213 NA
ATOM     33  C   UNL     1      26.383   7.055  56.047  1.00  0.00     0.117 A 
ATOM     34  C   UNL     1      24.396   7.224  57.219  1.00  0.00     0.077 A 
ATOM     35  C   UNL     1      25.721   7.473  57.137  1.00  0.00     0.049 A 
BRANCH  34  36
ATOM     36  C   UNL     1      23.550   7.682  58.353  1.00  0.00     0.019 A 
ATOM     37  C   UNL     1      23.955   8.728  59.197  1.00  0.00     0.013 A 
ATOM     38  C   UNL     1      22.315   7.060  58.620  1.00  0.00     0.121 A 
ATOM     39  C   UNL     1      23.135   9.097  60.256  1.00  0.00     0.021 A 
ATOM     40  N   UNL     1      21.524   7.405  59.644  1.00  0.00    -0.264 NA
ATOM     41  C   UNL     1      21.923   8.426  60.420  1.00  0.00     0.111 A 
ENDBRANCH  34  36
ENDBRANCH  28  30
ENDBRANCH   6  28
TORSDOF 7
ENDMDL
MODEL 8
REMARK VINA RESULT:   -11.508      2.114      3.129
REMARK INTER + INTRA:         -14.898
REMARK INTER:                 -13.596
REMARK INTRA:                  -1.302
REMARK CONF_INDEPENDENT:        2.088
REMARK UNBOUND:                -1.302
REMARK SMILES Cc1cn(-c2cc(NC(=O)c3ccc(C)c(Nc4nccc(-c5cccnc5)n4)c3)cc(C(F)(F)F)c2)cn1
REMARK SMILES IDX 11 1 12 2 13 3 14 4 15 5 16 6 30 7 9 8 10 9 8 10 7 12 6 13
REMARK SMILES IDX 31 14 5 15 32 16 37 17 4 18 3 19 38 20 2 21 39 22 1 23 33 24
REMARK SMILES IDX 34 25 35 26 36 27 17 28 18 30 19 31 29 32 20 33 22 34 21 35
REMARK SMILES IDX 23 36 24 37 28 38 25 39 27 40 26 41
REMARK H PARENT 8 11 17 29
ROOT
ATOM      1  C   UNL     1      26.977   2.425  52.408  1.00  0.00     0.042 A 
ATOM      2  C   UNL     1      27.133   1.054  52.155  1.00  0.00     0.014 A 
ATOM      3  C   UNL     1      27.915   0.246  52.982  1.00  0.00     0.006 A 
ATOM      4  C   UNL     1      28.635   0.782  54.038  1.00  0.00    -0.027 A 
ATOM      5  C   UNL     1      29.489  -0.110  54.927  1.00  0.00     0.046 C 
ATOM      6  C   UNL     1      28.566   2.161  54.232  1.00  0.00     0.045 A 
ATOM      7  C   UNL     1      27.756   2.950  53.406  1.00  0.00     0.040 A 
ENDROOT
BRANCH   1   8
ATOM      8  C   UNL     1      26.277   3.372  51.519  1.00  0.00     0.255 C 
ATOM      9  O   UNL     1      26.484   3.225  50.339  1.00  0.00    -0.269 OA
ATOM     10  N   UNL     1      25.312   4.112  52.085  1.00  0.00    -0.322 N 
ATOM     11  H   UNL     1      25.180   4.011  53.101  1.00  0.00     0.170 HD
BRANCH  10  12
ATOM     12  C   UNL     1      24.474   5.002  51.425  1.00  0.00     0.044 A 
ATOM     13  C   UNL     1      23.814   6.038  52.131  1.00  0.00     0.052 A 
ATOM     14  C   UNL     1      24.166   4.821  50.059  1.00  0.00     0.039 A 
ATOM     15  C   UNL     1      22.976   6.945  51.475  1.00  0.00     0.049 A 
ATOM     16  C   UNL     1      23.330   5.759  49.388  1.00  0.00     0.060 A 
ATOM     17  C   UNL     1      22.723   6.784  50.117  1.00  0.00     0.039 A 
BRANCH  15  18
ATOM     18  N   UNL     1      22.352   8.000  52.158  1.00  0.00    -0.306 N 
ATOM     19  C   UNL     1      21.514   7.948  53.270  1.00  0.00     0.116 A 
ATOM     20  C   UNL     1      22.361   9.293  51.814  1.00  0.00     0.204 A 
ATOM     21  C   UNL     1      21.079   9.201  53.529  1.00  0.00     0.056 A 
ATOM     22  N   UNL     1      21.645  10.032  52.627  1.00  0.00    -0.242 NA
ATOM     23  C   UNL     1      20.168   9.656  54.644  1.00  0.00     0.068 C 
ENDBRANCH  15  18
BRANCH  16  24
ATOM     24  C   UNL     1      23.070   5.577  47.928  1.00  0.00     0.416 C 
ATOM     25  F   UNL     1      23.685   6.466  47.124  1.00  0.00    -0.166 F 
ATOM     26  F   UNL     1      23.567   4.424  47.494  1.00  0.00    -0.166 F 
ATOM     27  F   UNL     1      21.765   5.724  47.617  1.00  0.00    -0.166 F 
ENDBRANCH  16  24
ENDBRANCH  10  12
ENDBRANCH   1   8
BRANCH   6  28
ATOM     28  N   UNL     1      29.150   2.702  55.385  1.00  0.00    -0.324 N 
ATOM     29  H   UNL     1      28.575   2.896  56.216  1.00  0.00     0.170 HD
BRANCH  28  30
ATOM     30  C   UNL     1      30.520   2.975  55.396  1.00  0.00     0.227 A 
ATOM     31  N   UNL     1      31.181   3.881  56.105  1.00  0.00    -0.221 NA
ATOM     32  N   UNL     1      31.106   2.183  54.463  1.00  0.00    -0.213 NA
ATOM     33  C   UNL     1      32.508   3.967  55.891  1.00  0.00     0.117 A 
ATOM     34  C   UNL     1      32.421   2.326  54.263  1.00  0.00     0.077 A 
ATOM     35  C   UNL     1      33.142   3.222  54.972  1.00  0.00     0.049 A 
BRANCH  34  36
ATOM     36  C   UNL     1      33.021   1.412  53.256  1.00  0.00     0.019 A 
ATOM     37  C   UNL     1      32.226   0.582  52.450  1.00  0.00     0.013 A 
ATOM     38  C   UNL     1      34.419   1.344  53.095  1.00  0.00     0.121 A 
ATOM     39  C   UNL     1      32.843  -0.271  51.544  1.00  0.00     0.021 A 
ATOM     40  N   UNL     1      35.020   0.518  52.229  1.00  0.00    -0.264 NA
ATOM     41  C   UNL     1      34.235  -0.246  51.453  1.00  0.00     0.111 A 
ENDBRANCH  34  36
ENDBRANCH  28  30
ENDBRANCH   6  28
TORSDOF 7
ENDMDL
MODEL 9
REMARK VINA RESULT:   -11.285      4.192     10.543
REMARK INTER + INTRA:         -14.694
REMARK INTER:                 -13.374
REMARK INTRA:                  -1.320
REMARK CONF_INDEPENDENT:        2.088
REMARK UNBOUND:                -1.320
REMARK SMILES Cc1cn(-c2cc(NC(=O)c3ccc(C)c(Nc4nccc(-c5cccnc5)n4)c3)cc(C(F)(F)F)c2)cn1
REMARK SMILES IDX 11 1 12 2 13 3 14 4 15 5 16 6 30 7 9 8 10 9 8 10 7 12 6 13
REMARK SMILES IDX 31 14 5 15 32 16 37 17 4 18 3 19 38 20 2 21 39 22 1 23 33 24
REMARK SMILES IDX 34 25 35 26 36 27 17 28 18 30 19 31 29 32 20 33 22 34 21 35
REMARK SMILES IDX 23 36 24 37 28 38 25 39 27 40 26 41
REMARK H PARENT 8 11 17 29
ROOT
ATOM      1  C   UNL     1      25.800   4.079  52.841  1.00  0.00     0.042 A 
ATOM      2  C   UNL     1      25.560   4.873  53.972  1.00  0.00     0.014 A 
ATOM      3  C   UNL     1      24.568   5.855  53.974  1.00  0.00     0.006 A 
ATOM      4  C   UNL     1      23.837   6.140  52.832  1.00  0.00    -0.027 A 
ATOM      5  C   UNL     1      22.763   7.218  52.847  1.00  0.00     0.046 C 
ATOM      6  C   UNL     1      24.141   5.424  51.675  1.00  0.00     0.045 A 
ATOM      7  C   UNL     1      25.123   4.426  51.700  1.00  0.00     0.040 A 
ENDROOT
BRANCH   1   8
ATOM      8  C   UNL     1      26.906   3.111  52.709  1.00  0.00     0.255 C 
ATOM      9  O   UNL     1      27.586   3.232  51.718  1.00  0.00    -0.269 OA
ATOM     10  N   UNL     1      27.189   2.383  53.799  1.00  0.00    -0.322 N 
ATOM     11  H   UNL     1      26.574   2.506  54.616  1.00  0.00     0.170 HD
BRANCH  10  12
ATOM     12  C   UNL     1      28.234   1.477  53.928  1.00  0.00     0.044 A 
ATOM     13  C   UNL     1      29.513   1.762  53.389  1.00  0.00     0.052 A 
ATOM     14  C   UNL     1      28.014   0.201  54.491  1.00  0.00     0.039 A 
ATOM     15  C   UNL     1      30.574   0.861  53.522  1.00  0.00     0.049 A 
ATOM     16  C   UNL     1      29.101  -0.706  54.646  1.00  0.00     0.060 A 
ATOM     17  C   UNL     1      30.354  -0.372  54.127  1.00  0.00     0.039 A 
BRANCH  15  18
ATOM     18  N   UNL     1      31.855   1.152  53.029  1.00  0.00    -0.306 N 
ATOM     19  C   UNL     1      32.533   0.573  51.958  1.00  0.00     0.116 A 
ATOM     20  C   UNL     1      32.743   2.003  53.557  1.00  0.00     0.204 A 
ATOM     21  C   UNL     1      33.773   1.108  51.904  1.00  0.00     0.056 A 
ATOM     22  N   UNL     1      33.873   2.024  52.894  1.00  0.00    -0.242 NA
ATOM     23  C   UNL     1      34.869   0.815  50.909  1.00  0.00     0.068 C 
ENDBRANCH  15  18
BRANCH  16  24
ATOM     24  C   UNL     1      28.852  -2.026  55.300  1.00  0.00     0.416 C 
ATOM     25  F   UNL     1      28.008  -2.840  54.637  1.00  0.00    -0.166 F 
ATOM     26  F   UNL     1      29.961  -2.754  55.342  1.00  0.00    -0.166 F 
ATOM     27  F   UNL     1      28.274  -1.896  56.513  1.00  0.00    -0.166 F 
ENDBRANCH  16  24
ENDBRANCH  10  12
ENDBRANCH   1   8
BRANCH   6  28
ATOM     28  N   UNL     1      23.310   5.579  50.558  1.00  0.00    -0.324 N 
ATOM     29  H   UNL     1      22.488   6.198  50.604  1.00  0.00     0.170 HD
BRANCH  28  30
ATOM     30  C   UNL     1      23.605   4.887  49.382  1.00  0.00     0.227 A 
ATOM     31  N   UNL     1      24.246   5.316  48.302  1.00  0.00    -0.221 NA
ATOM     32  N   UNL     1      23.039   3.656  49.475  1.00  0.00    -0.213 NA
ATOM     33  C   UNL     1      24.357   4.447  47.279  1.00  0.00     0.117 A 
ATOM     34  C   UNL     1      23.148   2.840  48.420  1.00  0.00     0.077 A 
ATOM     35  C   UNL     1      23.807   3.223  47.306  1.00  0.00     0.049 A 
BRANCH  34  36
ATOM     36  C   UNL     1      22.543   1.492  48.586  1.00  0.00     0.019 A 
ATOM     37  C   UNL     1      22.644   0.784  49.794  1.00  0.00     0.013 A 
ATOM     38  C   UNL     1      21.859   0.879  47.518  1.00  0.00     0.121 A 
ATOM     39  C   UNL     1      22.080  -0.482  49.883  1.00  0.00     0.021 A 
ATOM     40  N   UNL     1      21.321  -0.344  47.595  1.00  0.00    -0.264 NA
ATOM     41  C   UNL     1      21.410  -0.989  48.770  1.00  0.00     0.111 A 
ENDBRANCH  34  36
ENDBRANCH  28  30
ENDBRANCH   6  28
TORSDOF 7
ENDMDL
MODEL 10
REMARK VINA RESULT:   -11.127      3.675     12.078
REMARK INTER + INTRA:         -14.439
REMARK INTER:                 -13.215
REMARK INTRA:                  -1.224
REMARK CONF_INDEPENDENT:        2.088
REMARK UNBOUND:                -1.224
REMARK SMILES Cc1cn(-c2cc(NC(=O)c3ccc(C)c(Nc4nccc(-c5cccnc5)n4)c3)cc(C(F)(F)F)c2)cn1
REMARK SMILES IDX 11 1 12 2 13 3 14 4 15 5 16 6 30 7 9 8 10 9 8 10 7 12 6 13
REMARK SMILES IDX 31 14 5 15 32 16 37 17 4 18 3 19 38 20 2 21 39 22 1 23 33 24
REMARK SMILES IDX 34 25 35 26 36 27 17 28 18 30 19 31 29 32 20 33 22 34 21 35
REMARK SMILES IDX 23 36 24 37 28 38 25 39 27 40 26 41
REMARK H PARENT 8 11 17 29
ROOT
ATOM      1  C   UNL     1      26.118   3.495  51.638  1.00  0.00     0.042 A 
ATOM      2  C   UNL     1      25.504   3.856  50.429  1.00  0.00     0.014 A 
ATOM      3  C   UNL     1      24.247   4.463  50.405  1.00  0.00     0.006 A 
ATOM      4  C   UNL     1      23.520   4.657  51.568  1.00  0.00    -0.027 A 
ATOM      5  C   UNL     1      22.148   5.313  51.526  1.00  0.00     0.046 C 
ATOM      6  C   UNL     1      24.080   4.206  52.763  1.00  0.00     0.045 A 
ATOM      7  C   UNL     1      25.353   3.622  52.769  1.00  0.00     0.040 A 
ENDROOT
BRANCH   1   8
ATOM      8  C   UNL     1      27.380   2.739  51.750  1.00  0.00     0.255 C 
ATOM      9  O   UNL     1      28.310   3.186  51.124  1.00  0.00    -0.269 OA
ATOM     10  N   UNL     1      27.427   1.806  52.713  1.00  0.00    -0.322 N 
ATOM     11  H   UNL     1      26.564   1.645  53.251  1.00  0.00     0.170 HD
BRANCH  10  12
ATOM     12  C   UNL     1      28.534   1.037  53.051  1.00  0.00     0.044 A 
ATOM     13  C   UNL     1      29.819   1.350  52.543  1.00  0.00     0.052 A 
ATOM     14  C   UNL     1      28.383  -0.144  53.809  1.00  0.00     0.039 A 
ATOM     15  C   UNL     1      30.940   0.589  52.885  1.00  0.00     0.049 A 
ATOM     16  C   UNL     1      29.530  -0.906  54.175  1.00  0.00     0.060 A 
ATOM     17  C   UNL     1      30.783  -0.544  53.677  1.00  0.00     0.039 A 
BRANCH  15  18
ATOM     18  N   UNL     1      32.224   0.916  52.422  1.00  0.00    -0.306 N 
ATOM     19  C   UNL     1      32.866   0.501  51.256  1.00  0.00     0.116 A 
ATOM     20  C   UNL     1      33.148   1.638  53.066  1.00  0.00     0.204 A 
ATOM     21  C   UNL     1      34.123   0.997  51.268  1.00  0.00     0.056 A 
ATOM     22  N   UNL     1      34.269   1.732  52.392  1.00  0.00    -0.242 NA
ATOM     23  C   UNL     1      35.194   0.837  50.216  1.00  0.00     0.068 C 
ENDBRANCH  15  18
BRANCH  16  24
ATOM     24  C   UNL     1      29.348  -2.118  55.029  1.00  0.00     0.416 C 
ATOM     25  F   UNL     1      28.736  -3.156  54.423  1.00  0.00    -0.166 F 
ATOM     26  F   UNL     1      30.519  -2.647  55.363  1.00  0.00    -0.166 F 
ATOM     27  F   UNL     1      28.567  -1.877  56.102  1.00  0.00    -0.166 F 
ENDBRANCH  16  24
ENDBRANCH  10  12
ENDBRANCH   1   8
BRANCH   6  28
ATOM     28  N   UNL     1      23.441   4.535  53.965  1.00  0.00    -0.324 N 
ATOM     29  H   UNL     1      22.819   3.856  54.426  1.00  0.00     0.170 HD
BRANCH  28  30
ATOM     30  C   UNL     1      23.653   5.793  54.534  1.00  0.00     0.227 A 
ATOM     31  N   UNL     1      24.620   6.182  55.356  1.00  0.00    -0.221 NA
ATOM     32  N   UNL     1      22.620   6.592  54.162  1.00  0.00    -0.213 NA
ATOM     33  C   UNL     1      24.564   7.453  55.796  1.00  0.00     0.117 A 
ATOM     34  C   UNL     1      22.592   7.838  54.651  1.00  0.00     0.077 A 
ATOM     35  C   UNL     1      23.562   8.287  55.476  1.00  0.00     0.049 A 
BRANCH  34  36
ATOM     36  C   UNL     1      21.461   8.683  54.187  1.00  0.00     0.019 A 
ATOM     37  C   UNL     1      20.126   8.274  54.338  1.00  0.00     0.013 A 
ATOM     38  C   UNL     1      21.703   9.923  53.564  1.00  0.00     0.121 A 
ATOM     39  C   UNL     1      19.111   9.095  53.863  1.00  0.00     0.021 A 
ATOM     40  N   UNL     1      20.729  10.715  53.097  1.00  0.00    -0.264 NA
ATOM     41  C   UNL     1      19.461  10.311  53.278  1.00  0.00     0.111 A 
ENDBRANCH  34  36
ENDBRANCH  28  30
ENDBRANCH   6  28
TORSDOF 7
ENDMDL
MODEL 11
REMARK VINA RESULT:   -11.078      1.784      2.681
REMARK INTER + INTRA:         -14.372
REMARK INTER:                 -13.166
REMARK INTRA:                  -1.206
REMARK CONF_INDEPENDENT:        2.088
REMARK UNBOUND:                -1.206
REMARK SMILES Cc1cn(-c2cc(NC(=O)c3ccc(C)c(Nc4nccc(-c5cccnc5)n4)c3)cc(C(F)(F)F)c2)cn1
REMARK SMILES IDX 11 1 12 2 13 3 14 4 15 5 16 6 30 7 9 8 10 9 8 10 7 12 6 13
REMARK SMILES IDX 31 14 5 15 32 16 37 17 4 18 3 19 38 20 2 21 39 22 1 23 33 24
REMARK SMILES IDX 34 25 35 26 36 27 17 28 18 30 19 31 29 32 20 33 22 34 21 35
REMARK SMILES IDX 23 36 24 37 28 38 25 39 27 40 26 41
REMARK H PARENT 8 11 17 29
ROOT
ATOM      1  C   UNL     1      27.038   2.376  52.506  1.00  0.00     0.042 A 
ATOM      2  C   UNL     1      27.150   1.275  51.644  1.00  0.00     0.014 A 
ATOM      3  C   UNL     1      28.082   0.263  51.875  1.00  0.00     0.006 A 
ATOM      4  C   UNL     1      28.991   0.347  52.917  1.00  0.00    -0.027 A 
ATOM      5  C   UNL     1      30.007  -0.762  53.153  1.00  0.00     0.046 C 
ATOM      6  C   UNL     1      28.953   1.489  53.716  1.00  0.00     0.045 A 
ATOM      7  C   UNL     1      27.994   2.482  53.483  1.00  0.00     0.040 A 
ENDROOT
BRANCH   1   8
ATOM      8  C   UNL     1      26.173   3.549  52.269  1.00  0.00     0.255 C 
ATOM      9  O   UNL     1      26.030   3.862  51.112  1.00  0.00    -0.269 OA
ATOM     10  N   UNL     1      25.452   3.974  53.318  1.00  0.00    -0.322 N 
ATOM     11  H   UNL     1      25.607   3.495  54.216  1.00  0.00     0.170 HD
BRANCH  10  12
ATOM     12  C   UNL     1      24.516   5.000  53.302  1.00  0.00     0.044 A 
ATOM     13  C   UNL     1      23.779   5.329  54.466  1.00  0.00     0.052 A 
ATOM     14  C   UNL     1      24.192   5.658  52.096  1.00  0.00     0.039 A 
ATOM     15  C   UNL     1      22.842   6.367  54.463  1.00  0.00     0.049 A 
ATOM     16  C   UNL     1      23.254   6.729  52.099  1.00  0.00     0.060 A 
ATOM     17  C   UNL     1      22.571   7.041  53.277  1.00  0.00     0.039 A 
BRANCH  15  18
ATOM     18  N   UNL     1      22.138   6.728  55.621  1.00  0.00    -0.306 N 
ATOM     19  C   UNL     1      22.626   6.972  56.904  1.00  0.00     0.116 A 
ATOM     20  C   UNL     1      20.809   6.825  55.753  1.00  0.00     0.204 A 
ATOM     21  C   UNL     1      21.574   7.203  57.719  1.00  0.00     0.056 A 
ATOM     22  N   UNL     1      20.449   7.139  56.974  1.00  0.00    -0.242 NA
ATOM     23  C   UNL     1      21.596   7.534  59.192  1.00  0.00     0.068 C 
ENDBRANCH  15  18
BRANCH  16  24
ATOM     24  C   UNL     1      22.974   7.448  50.820  1.00  0.00     0.416 C 
ATOM     25  F   UNL     1      24.061   7.718  50.069  1.00  0.00    -0.166 F 
ATOM     26  F   UNL     1      22.252   6.696  49.998  1.00  0.00    -0.166 F 
ATOM     27  F   UNL     1      22.425   8.663  51.023  1.00  0.00    -0.166 F 
ENDBRANCH  16  24
ENDBRANCH  10  12
ENDBRANCH   1   8
BRANCH   6  28
ATOM     28  N   UNL     1      29.748   1.522  54.869  1.00  0.00    -0.324 N 
ATOM     29  H   UNL     1      29.386   1.156  55.761  1.00  0.00     0.170 HD
BRANCH  28  30
ATOM     30  C   UNL     1      31.037   2.055  54.799  1.00  0.00     0.227 A 
ATOM     31  N   UNL     1      31.564   3.052  55.498  1.00  0.00    -0.221 NA
ATOM     32  N   UNL     1      31.693   1.416  53.796  1.00  0.00    -0.213 NA
ATOM     33  C   UNL     1      32.831   3.398  55.198  1.00  0.00     0.117 A 
ATOM     34  C   UNL     1      32.938   1.817  53.514  1.00  0.00     0.077 A 
ATOM     35  C   UNL     1      33.525   2.815  54.209  1.00  0.00     0.049 A 
BRANCH  34  36
ATOM     36  C   UNL     1      33.625   1.064  52.432  1.00  0.00     0.019 A 
ATOM     37  C   UNL     1      33.440  -0.318  52.266  1.00  0.00     0.013 A 
ATOM     38  C   UNL     1      34.501   1.722  51.547  1.00  0.00     0.121 A 
ATOM     39  C   UNL     1      34.128  -0.974  51.253  1.00  0.00     0.021 A 
ATOM     40  N   UNL     1      35.173   1.094  50.574  1.00  0.00    -0.264 NA
ATOM     41  C   UNL     1      34.958  -0.223  50.422  1.00  0.00     0.111 A 
ENDBRANCH  34  36
ENDBRANCH  28  30
ENDBRANCH   6  28
TORSDOF 7
ENDMDL
MODEL 12
REMARK VINA RESULT:   -10.984      3.863     11.624
REMARK INTER + INTRA:         -14.161
REMARK INTER:                 -13.073
REMARK INTRA:                  -1.089
REMARK CONF_INDEPENDENT:        2.088
REMARK UNBOUND:                -1.089
REMARK SMILES Cc1cn(-c2cc(NC(=O)c3ccc(C)c(Nc4nccc(-c5cccnc5)n4)c3)cc(C(F)(F)F)c2)cn1
REMARK SMILES IDX 11 1 12 2 13 3 14 4 15 5 16 6 30 7 9 8 10 9 8 10 7 12 6 13
REMARK SMILES IDX 31 14 5 15 32 16 37 17 4 18 3 19 38 20 2 21 39 22 1 23 33 24
REMARK SMILES IDX 34 25 35 26 36 27 17 28 18 30 19 31 29 32 20 33 22 34 21 35
REMARK SMILES IDX 23 36 24 37 28 38 25 39 27 40 26 41
REMARK H PARENT 8 11 17 29
ROOT
ATOM      1  C   UNL     1      25.638   3.503  51.763  1.00  0.00     0.042 A 
ATOM      2  C   UNL     1      24.649   3.034  50.885  1.00  0.00     0.014 A 
ATOM      3  C   UNL     1      23.335   3.498  50.955  1.00  0.00     0.006 A 
ATOM      4  C   UNL     1      22.937   4.379  51.947  1.00  0.00    -0.027 A 
ATOM      5  C   UNL     1      21.498   4.872  52.016  1.00  0.00     0.046 C 
ATOM      6  C   UNL     1      23.890   4.770  52.886  1.00  0.00     0.045 A 
ATOM      7  C   UNL     1      25.210   4.311  52.784  1.00  0.00     0.040 A 
ENDROOT
BRANCH   1   8
ATOM      8  C   UNL     1      27.015   2.976  51.843  1.00  0.00     0.255 C 
ATOM      9  O   UNL     1      27.583   2.848  50.785  1.00  0.00    -0.269 OA
ATOM     10  N   UNL     1      27.564   2.937  53.066  1.00  0.00    -0.322 N 
ATOM     11  H   UNL     1      26.964   3.213  53.856  1.00  0.00     0.170 HD
BRANCH  10  12
ATOM     12  C   UNL     1      28.867   2.559  53.364  1.00  0.00     0.044 A 
ATOM     13  C   UNL     1      29.521   1.551  52.613  1.00  0.00     0.052 A 
ATOM     14  C   UNL     1      29.525   3.084  54.497  1.00  0.00     0.039 A 
ATOM     15  C   UNL     1      30.835   1.171  52.899  1.00  0.00     0.049 A 
ATOM     16  C   UNL     1      30.872   2.712  54.773  1.00  0.00     0.060 A 
ATOM     17  C   UNL     1      31.490   1.736  53.989  1.00  0.00     0.039 A 
BRANCH  15  18
ATOM     18  N   UNL     1      31.507   0.204  52.135  1.00  0.00    -0.306 N 
ATOM     19  C   UNL     1      32.871   0.085  51.877  1.00  0.00     0.116 A 
ATOM     20  C   UNL     1      30.949  -0.771  51.408  1.00  0.00     0.204 A 
ATOM     21  C   UNL     1      33.050  -0.946  51.023  1.00  0.00     0.056 A 
ATOM     22  N   UNL     1      31.839  -1.489  50.767  1.00  0.00    -0.242 NA
ATOM     23  C   UNL     1      34.349  -1.476  50.466  1.00  0.00     0.068 C 
ENDBRANCH  15  18
BRANCH  16  24
ATOM     24  C   UNL     1      31.565   3.329  55.944  1.00  0.00     0.416 C 
ATOM     25  F   UNL     1      30.914   4.364  56.511  1.00  0.00    -0.166 F 
ATOM     26  F   UNL     1      31.650   2.472  56.955  1.00  0.00    -0.166 F 
ATOM     27  F   UNL     1      32.762   3.855  55.613  1.00  0.00    -0.166 F 
ENDBRANCH  16  24
ENDBRANCH  10  12
ENDBRANCH   1   8
BRANCH   6  28
ATOM     28  N   UNL     1      23.555   5.780  53.796  1.00  0.00    -0.324 N 
ATOM     29  H   UNL     1      22.625   6.221  53.763  1.00  0.00     0.170 HD
BRANCH  28  30
ATOM     30  C   UNL     1      24.492   6.185  54.749  1.00  0.00     0.227 A 
ATOM     31  N   UNL     1      25.817   6.163  54.675  1.00  0.00    -0.221 NA
ATOM     32  N   UNL     1      23.812   6.557  55.864  1.00  0.00    -0.213 NA
ATOM     33  C   UNL     1      26.491   6.574  55.766  1.00  0.00     0.117 A 
ATOM     34  C   UNL     1      24.526   6.927  56.933  1.00  0.00     0.077 A 
ATOM     35  C   UNL     1      25.876   6.939  56.902  1.00  0.00     0.049 A 
BRANCH  34  36
ATOM     36  C   UNL     1      23.735   7.358  58.116  1.00  0.00     0.019 A 
ATOM     37  C   UNL     1      24.356   7.779  59.302  1.00  0.00     0.013 A 
ATOM     38  C   UNL     1      22.327   7.341  58.079  1.00  0.00     0.121 A 
ATOM     39  C   UNL     1      23.566   8.147  60.384  1.00  0.00     0.021 A 
ATOM     40  N   UNL     1      21.560   7.686  59.121  1.00  0.00    -0.264 NA
ATOM     41  C   UNL     1      22.180   8.109  60.235  1.00  0.00     0.111 A 
ENDBRANCH  34  36
ENDBRANCH  28  30
ENDBRANCH   6  28
TORSDOF 7
ENDMDL
MODEL 13
REMARK VINA RESULT:   -10.981      4.524      7.906
REMARK INTER + INTRA:         -14.130
REMARK INTER:                 -13.069
REMARK INTRA:                  -1.062
REMARK CONF_INDEPENDENT:        2.088
REMARK UNBOUND:                -1.062
REMARK SMILES Cc1cn(-c2cc(NC(=O)c3ccc(C)c(Nc4nccc(-c5cccnc5)n4)c3)cc(C(F)(F)F)c2)cn1
REMARK SMILES IDX 11 1 12 2 13 3 14 4 15 5 16 6 30 7 9 8 10 9 8 10 7 12 6 13
REMARK SMILES IDX 31 14 5 15 32 16 37 17 4 18 3 19 38 20 2 21 39 22 1 23 33 24
REMARK SMILES IDX 34 25 35 26 36 27 17 28 18 30 19 31 29 32 20 33 22 34 21 35
REMARK SMILES IDX 23 36 24 37 28 38 25 39 27 40 26 41
REMARK H PARENT 8 11 17 29
ROOT
ATOM      1  C   UNL     1      33.922  -0.627  50.791  1.00  0.00     0.042 A 
ATOM      2  C   UNL     1      33.938  -1.868  50.138  1.00  0.00     0.014 A 
ATOM      3  C   UNL     1      34.943  -2.198  49.228  1.00  0.00     0.006 A 
ATOM      4  C   UNL     1      35.918  -1.281  48.871  1.00  0.00    -0.027 A 
ATOM      5  C   UNL     1      37.004  -1.652  47.871  1.00  0.00     0.046 C 
ATOM      6  C   UNL     1      35.848  -0.009  49.438  1.00  0.00     0.045 A 
ATOM      7  C   UNL     1      34.846   0.294  50.368  1.00  0.00     0.040 A 
ENDROOT
BRANCH   1   8
ATOM      8  C   UNL     1      32.834  -0.148  51.666  1.00  0.00     0.255 C 
ATOM      9  O   UNL     1      33.014   0.932  52.173  1.00  0.00    -0.269 OA
ATOM     10  N   UNL     1      31.681  -0.830  51.604  1.00  0.00    -0.322 N 
ATOM     11  H   UNL     1      31.665  -1.668  51.005  1.00  0.00     0.170 HD
BRANCH  10  12
ATOM     12  C   UNL     1      30.506  -0.510  52.273  1.00  0.00     0.044 A 
ATOM     13  C   UNL     1      29.726   0.606  51.880  1.00  0.00     0.052 A 
ATOM     14  C   UNL     1      30.126  -1.217  53.435  1.00  0.00     0.039 A 
ATOM     15  C   UNL     1      28.538   0.930  52.540  1.00  0.00     0.049 A 
ATOM     16  C   UNL     1      28.904  -0.899  54.093  1.00  0.00     0.060 A 
ATOM     17  C   UNL     1      28.149   0.191  53.653  1.00  0.00     0.039 A 
BRANCH  15  18
ATOM     18  N   UNL     1      27.737   2.007  52.133  1.00  0.00    -0.306 N 
ATOM     19  C   UNL     1      26.798   2.728  52.868  1.00  0.00     0.116 A 
ATOM     20  C   UNL     1      27.645   2.515  50.898  1.00  0.00     0.204 A 
ATOM     21  C   UNL     1      26.208   3.619  52.042  1.00  0.00     0.056 A 
ATOM     22  N   UNL     1      26.775   3.492  50.821  1.00  0.00    -0.242 NA
ATOM     23  C   UNL     1      25.143   4.634  52.378  1.00  0.00     0.068 C 
ENDBRANCH  15  18
BRANCH  16  24
ATOM     24  C   UNL     1      28.496  -1.703  55.284  1.00  0.00     0.416 C 
ATOM     25  F   UNL     1      27.589  -2.669  55.037  1.00  0.00    -0.166 F 
ATOM     26  F   UNL     1      29.519  -2.402  55.761  1.00  0.00    -0.166 F 
ATOM     27  F   UNL     1      27.900  -0.950  56.232  1.00  0.00    -0.166 F 
ENDBRANCH  16  24
ENDBRANCH  10  12
ENDBRANCH   1   8
BRANCH   6  28
ATOM     28  N   UNL     1      36.910   0.878  49.220  1.00  0.00    -0.324 N 
ATOM     29  H   UNL     1      36.727   1.831  48.875  1.00  0.00     0.170 HD
BRANCH  28  30
ATOM     30  C   UNL     1      38.217   0.459  49.473  1.00  0.00     0.227 A 
ATOM     31  N   UNL     1      38.664  -0.342  50.432  1.00  0.00    -0.221 NA
ATOM     32  N   UNL     1      39.031   1.091  48.588  1.00  0.00    -0.213 NA
ATOM     33  C   UNL     1      39.994  -0.549  50.477  1.00  0.00     0.117 A 
ATOM     34  C   UNL     1      40.348   0.879  48.692  1.00  0.00     0.077 A 
ATOM     35  C   UNL     1      40.850   0.058  49.640  1.00  0.00     0.049 A 
BRANCH  34  36
ATOM     36  C   UNL     1      41.191   1.564  47.679  1.00  0.00     0.019 A 
ATOM     37  C   UNL     1      42.538   1.871  47.929  1.00  0.00     0.013 A 
ATOM     38  C   UNL     1      40.650   1.941  46.434  1.00  0.00     0.121 A 
ATOM     39  C   UNL     1      43.271   2.536  46.954  1.00  0.00     0.021 A 
ATOM     40  N   UNL     1      41.349   2.589  45.494  1.00  0.00    -0.264 NA
ATOM     41  C   UNL     1      42.642   2.847  45.749  1.00  0.00     0.111 A 
ENDBRANCH  34  36
ENDBRANCH  28  30
ENDBRANCH   6  28
TORSDOF 7
ENDMDL
MODEL 14
REMARK VINA RESULT:   -10.883      8.333     15.198
REMARK INTER + INTRA:         -14.288
REMARK INTER:                 -12.971
REMARK INTRA:                  -1.318
REMARK CONF_INDEPENDENT:        2.088
REMARK UNBOUND:                -1.318
REMARK SMILES Cc1cn(-c2cc(NC(=O)c3ccc(C)c(Nc4nccc(-c5cccnc5)n4)c3)cc(C(F)(F)F)c2)cn1
REMARK SMILES IDX 11 1 12 2 13 3 14 4 15 5 16 6 30 7 9 8 10 9 8 10 7 12 6 13
REMARK SMILES IDX 31 14 5 15 32 16 37 17 4 18 3 19 38 20 2 21 39 22 1 23 33 24
REMARK SMILES IDX 34 25 35 26 36 27 17 28 18 30 19 31 29 32 20 33 22 34 21 35
REMARK SMILES IDX 23 36 24 37 28 38 25 39 27 40 26 41
REMARK H PARENT 8 11 17 29
ROOT
ATOM      1  C   UNL     1      35.971  -1.662  49.265  1.00  0.00     0.042 A 
ATOM      2  C   UNL     1      35.192  -2.822  49.145  1.00  0.00     0.014 A 
ATOM      3  C   UNL     1      33.817  -2.804  49.387  1.00  0.00     0.006 A 
ATOM      4  C   UNL     1      33.182  -1.657  49.835  1.00  0.00    -0.027 A 
ATOM      5  C   UNL     1      31.684  -1.653  50.102  1.00  0.00     0.046 C 
ATOM      6  C   UNL     1      33.969  -0.527  50.056  1.00  0.00     0.045 A 
ATOM      7  C   UNL     1      35.342  -0.560  49.783  1.00  0.00     0.040 A 
ENDROOT
BRANCH   1   8
ATOM      8  C   UNL     1      37.442  -1.618  49.153  1.00  0.00     0.255 C 
ATOM      9  O   UNL     1      38.022  -1.180  50.117  1.00  0.00    -0.269 OA
ATOM     10  N   UNL     1      37.977  -2.289  48.122  1.00  0.00    -0.322 N 
ATOM     11  H   UNL     1      37.322  -2.723  47.457  1.00  0.00     0.170 HD
BRANCH  10  12
ATOM     12  C   UNL     1      39.334  -2.452  47.871  1.00  0.00     0.044 A 
ATOM     13  C   UNL     1      39.902  -2.028  46.644  1.00  0.00     0.052 A 
ATOM     14  C   UNL     1      40.154  -3.153  48.782  1.00  0.00     0.039 A 
ATOM     15  C   UNL     1      41.267  -2.178  46.386  1.00  0.00     0.049 A 
ATOM     16  C   UNL     1      41.549  -3.286  48.527  1.00  0.00     0.060 A 
ATOM     17  C   UNL     1      42.073  -2.825  47.317  1.00  0.00     0.039 A 
BRANCH  15  18
ATOM     18  N   UNL     1      41.847  -1.724  45.192  1.00  0.00    -0.306 N 
ATOM     19  C   UNL     1      42.150  -0.419  44.807  1.00  0.00     0.116 A 
ATOM     20  C   UNL     1      42.150  -2.461  44.117  1.00  0.00     0.204 A 
ATOM     21  C   UNL     1      42.617  -0.451  43.539  1.00  0.00     0.056 A 
ATOM     22  N   UNL     1      42.639  -1.741  43.137  1.00  0.00    -0.242 NA
ATOM     23  C   UNL     1      43.093   0.707  42.696  1.00  0.00     0.068 C 
ENDBRANCH  15  18
BRANCH  16  24
ATOM     24  C   UNL     1      42.404  -3.979  49.537  1.00  0.00     0.416 C 
ATOM     25  F   UNL     1      43.206  -3.170  50.256  1.00  0.00    -0.166 F 
ATOM     26  F   UNL     1      41.663  -4.543  50.483  1.00  0.00    -0.166 F 
ATOM     27  F   UNL     1      43.265  -4.849  48.969  1.00  0.00    -0.166 F 
ENDBRANCH  16  24
ENDBRANCH  10  12
ENDBRANCH   1   8
BRANCH   6  28
ATOM     28  N   UNL     1      33.329   0.683  50.351  1.00  0.00    -0.324 N 
ATOM     29  H   UNL     1      32.983   1.287  49.591  1.00  0.00     0.170 HD
BRANCH  28  30
ATOM     30  C   UNL     1      33.163   1.065  51.684  1.00  0.00     0.227 A 
ATOM     31  N   UNL     1      33.876   1.927  52.398  1.00  0.00    -0.221 NA
ATOM     32  N   UNL     1      32.149   0.325  52.201  1.00  0.00    -0.213 NA
ATOM     33  C   UNL     1      33.525   2.080  53.689  1.00  0.00     0.117 A 
ATOM     34  C   UNL     1      31.858   0.488  53.497  1.00  0.00     0.077 A 
ATOM     35  C   UNL     1      32.543   1.366  54.261  1.00  0.00     0.049 A 
BRANCH  34  36
ATOM     36  C   UNL     1      30.719  -0.320  54.006  1.00  0.00     0.019 A 
ATOM     37  C   UNL     1      29.629   0.277  54.660  1.00  0.00     0.013 A 
ATOM     38  C   UNL     1      30.712  -1.720  53.857  1.00  0.00     0.121 A 
ATOM     39  C   UNL     1      28.605  -0.530  55.138  1.00  0.00     0.021 A 
ATOM     40  N   UNL     1      29.730  -2.504  54.322  1.00  0.00    -0.264 NA
ATOM     41  C   UNL     1      28.688  -1.905  54.921  1.00  0.00     0.111 A 
ENDBRANCH  34  36
ENDBRANCH  28  30
ENDBRANCH   6  28
TORSDOF 7
ENDMDL
MODEL 15
REMARK VINA RESULT:   -10.838      4.166     11.157
REMARK INTER + INTRA:         -14.203
REMARK INTER:                 -12.926
REMARK INTRA:                  -1.277
REMARK CONF_INDEPENDENT:        2.088
REMARK UNBOUND:                -1.277
REMARK SMILES Cc1cn(-c2cc(NC(=O)c3ccc(C)c(Nc4nccc(-c5cccnc5)n4)c3)cc(C(F)(F)F)c2)cn1
REMARK SMILES IDX 11 1 12 2 13 3 14 4 15 5 16 6 30 7 9 8 10 9 8 10 7 12 6 13
REMARK SMILES IDX 31 14 5 15 32 16 37 17 4 18 3 19 38 20 2 21 39 22 1 23 33 24
REMARK SMILES IDX 34 25 35 26 36 27 17 28 18 30 19 31 29 32 20 33 22 34 21 35
REMARK SMILES IDX 23 36 24 37 28 38 25 39 27 40 26 41
REMARK H PARENT 8 11 17 29
ROOT
ATOM      1  C   UNL     1      25.662   3.714  51.881  1.00  0.00     0.042 A 
ATOM      2  C   UNL     1      24.855   3.703  50.734  1.00  0.00     0.014 A 
ATOM      3  C   UNL     1      23.516   4.094  50.784  1.00  0.00     0.006 A 
ATOM      4  C   UNL     1      22.909   4.428  51.984  1.00  0.00    -0.027 A 
ATOM      5  C   UNL     1      21.446   4.845  52.025  1.00  0.00     0.046 C 
ATOM      6  C   UNL     1      23.679   4.341  53.143  1.00  0.00     0.045 A 
ATOM      7  C   UNL     1      25.027   3.970  53.069  1.00  0.00     0.040 A 
ENDROOT
BRANCH   1   8
ATOM      8  C   UNL     1      27.044   3.199  51.945  1.00  0.00     0.255 C 
ATOM      9  O   UNL     1      27.644   3.193  50.897  1.00  0.00    -0.269 OA
ATOM     10  N   UNL     1      27.559   3.035  53.173  1.00  0.00    -0.322 N 
ATOM     11  H   UNL     1      26.933   3.217  53.970  1.00  0.00     0.170 HD
BRANCH  10  12
ATOM     12  C   UNL     1      28.859   2.644  53.467  1.00  0.00     0.044 A 
ATOM     13  C   UNL     1      29.512   1.651  52.695  1.00  0.00     0.052 A 
ATOM     14  C   UNL     1      29.515   3.139  54.615  1.00  0.00     0.039 A 
ATOM     15  C   UNL     1      30.823   1.258  52.978  1.00  0.00     0.049 A 
ATOM     16  C   UNL     1      30.859   2.754  54.888  1.00  0.00     0.060 A 
ATOM     17  C   UNL     1      31.476   1.794  54.083  1.00  0.00     0.039 A 
BRANCH  15  18
ATOM     18  N   UNL     1      31.493   0.307  52.194  1.00  0.00    -0.306 N 
ATOM     19  C   UNL     1      31.120  -0.236  50.965  1.00  0.00     0.116 A 
ATOM     20  C   UNL     1      32.609  -0.357  52.519  1.00  0.00     0.204 A 
ATOM     21  C   UNL     1      32.026  -1.178  50.627  1.00  0.00     0.056 A 
ATOM     22  N   UNL     1      32.968  -1.216  51.597  1.00  0.00    -0.242 NA
ATOM     23  C   UNL     1      32.062  -2.027  49.380  1.00  0.00     0.068 C 
ENDBRANCH  15  18
BRANCH  16  24
ATOM     24  C   UNL     1      31.550   3.340  56.076  1.00  0.00     0.416 C 
ATOM     25  F   UNL     1      31.650   2.519  57.140  1.00  0.00    -0.166 F 
ATOM     26  F   UNL     1      32.825   3.597  55.807  1.00  0.00    -0.166 F 
ATOM     27  F   UNL     1      30.900   4.415  56.569  1.00  0.00    -0.166 F 
ENDBRANCH  16  24
ENDBRANCH  10  12
ENDBRANCH   1   8
BRANCH   6  28
ATOM     28  N   UNL     1      23.138   4.827  54.341  1.00  0.00    -0.324 N 
ATOM     29  H   UNL     1      22.477   4.253  54.883  1.00  0.00     0.170 HD
BRANCH  28  30
ATOM     30  C   UNL     1      23.502   6.097  54.793  1.00  0.00     0.227 A 
ATOM     31  N   UNL     1      23.335   7.272  54.199  1.00  0.00    -0.221 NA
ATOM     32  N   UNL     1      24.163   5.941  55.969  1.00  0.00    -0.213 NA
ATOM     33  C   UNL     1      23.825   8.350  54.841  1.00  0.00     0.117 A 
ATOM     34  C   UNL     1      24.659   7.038  56.553  1.00  0.00     0.077 A 
ATOM     35  C   UNL     1      24.500   8.258  55.997  1.00  0.00     0.049 A 
BRANCH  34  36
ATOM     36  C   UNL     1      25.342   6.819  57.855  1.00  0.00     0.019 A 
ATOM     37  C   UNL     1      24.620   6.680  59.051  1.00  0.00     0.013 A 
ATOM     38  C   UNL     1      26.748   6.760  57.924  1.00  0.00     0.121 A 
ATOM     39  C   UNL     1      25.313   6.502  60.241  1.00  0.00     0.021 A 
ATOM     40  N   UNL     1      27.422   6.597  59.070  1.00  0.00    -0.264 NA
ATOM     41  C   UNL     1      26.705   6.441  60.195  1.00  0.00     0.111 A 
ENDBRANCH  34  36
ENDBRANCH  28  30
ENDBRANCH   6  28
TORSDOF 7
ENDMDL
MODEL 16
REMARK VINA RESULT:   -10.833      4.654     13.475
REMARK INTER + INTRA:         -14.217
REMARK INTER:                 -12.921
REMARK INTRA:                  -1.296
REMARK CONF_INDEPENDENT:        2.088
REMARK UNBOUND:                -1.296
REMARK SMILES Cc1cn(-c2cc(NC(=O)c3ccc(C)c(Nc4nccc(-c5cccnc5)n4)c3)cc(C(F)(F)F)c2)cn1
REMARK SMILES IDX 11 1 12 2 13 3 14 4 15 5 16 6 30 7 9 8 10 9 8 10 7 12 6 13
REMARK SMILES IDX 31 14 5 15 32 16 37 17 4 18 3 19 38 20 2 21 39 22 1 23 33 24
REMARK SMILES IDX 34 25 35 26 36 27 17 28 18 30 19 31 29 32 20 33 22 34 21 35
REMARK SMILES IDX 23 36 24 37 28 38 25 39 27 40 26 41
REMARK H PARENT 8 11 17 29
ROOT
ATOM      1  C   UNL     1      21.190   7.106  54.242  1.00  0.00     0.042 A 
ATOM      2  C   UNL     1      20.993   7.244  55.624  1.00  0.00     0.014 A 
ATOM      3  C   UNL     1      20.267   8.313  56.151  1.00  0.00     0.006 A 
ATOM      4  C   UNL     1      19.782   9.324  55.337  1.00  0.00    -0.027 A 
ATOM      5  C   UNL     1      18.998  10.487  55.927  1.00  0.00     0.046 C 
ATOM      6  C   UNL     1      20.064   9.246  53.974  1.00  0.00     0.045 A 
ATOM      7  C   UNL     1      20.773   8.153  53.461  1.00  0.00     0.040 A 
ENDROOT
BRANCH   1   8
ATOM      8  C   UNL     1      22.047   6.084  53.610  1.00  0.00     0.255 C 
ATOM      9  O   UNL     1      21.970   4.977  54.084  1.00  0.00    -0.269 OA
ATOM     10  N   UNL     1      22.615   6.426  52.443  1.00  0.00    -0.322 N 
ATOM     11  H   UNL     1      22.463   7.390  52.115  1.00  0.00     0.170 HD
BRANCH  10  12
ATOM     12  C   UNL     1      23.387   5.599  51.638  1.00  0.00     0.044 A 
ATOM     13  C   UNL     1      24.472   4.864  52.179  1.00  0.00     0.052 A 
ATOM     14  C   UNL     1      23.185   5.564  50.241  1.00  0.00     0.039 A 
ATOM     15  C   UNL     1      25.248   4.022  51.378  1.00  0.00     0.049 A 
ATOM     16  C   UNL     1      23.963   4.689  49.431  1.00  0.00     0.060 A 
ATOM     17  C   UNL     1      25.003   3.959  50.010  1.00  0.00     0.039 A 
BRANCH  15  18
ATOM     18  N   UNL     1      26.298   3.258  51.912  1.00  0.00    -0.306 N 
ATOM     19  C   UNL     1      26.496   2.840  53.226  1.00  0.00     0.116 A 
ATOM     20  C   UNL     1      27.395   2.844  51.267  1.00  0.00     0.204 A 
ATOM     21  C   UNL     1      27.685   2.202  53.291  1.00  0.00     0.056 A 
ATOM     22  N   UNL     1      28.216   2.186  52.049  1.00  0.00    -0.242 NA
ATOM     23  C   UNL     1      28.327   1.556  54.495  1.00  0.00     0.068 C 
ENDBRANCH  15  18
BRANCH  16  24
ATOM     24  C   UNL     1      23.687   4.628  47.964  1.00  0.00     0.416 C 
ATOM     25  F   UNL     1      24.515   5.365  47.197  1.00  0.00    -0.166 F 
ATOM     26  F   UNL     1      23.891   3.404  47.490  1.00  0.00    -0.166 F 
ATOM     27  F   UNL     1      22.464   5.104  47.651  1.00  0.00    -0.166 F 
ENDBRANCH  16  24
ENDBRANCH  10  12
ENDBRANCH   1   8
BRANCH   6  28
ATOM     28  N   UNL     1      19.450  10.165  53.113  1.00  0.00    -0.324 N 
ATOM     29  H   UNL     1      20.016  10.722  52.458  1.00  0.00     0.170 HD
BRANCH  28  30
ATOM     30  C   UNL     1      18.062  10.319  53.149  1.00  0.00     0.227 A 
ATOM     31  N   UNL     1      17.346  11.433  53.071  1.00  0.00    -0.221 NA
ATOM     32  N   UNL     1      17.518   9.094  53.367  1.00  0.00    -0.213 NA
ATOM     33  C   UNL     1      16.010  11.303  53.178  1.00  0.00     0.117 A 
ATOM     34  C   UNL     1      16.188   9.019  53.499  1.00  0.00     0.077 A 
ATOM     35  C   UNL     1      15.415  10.122  53.409  1.00  0.00     0.049 A 
BRANCH  34  36
ATOM     36  C   UNL     1      15.639   7.653  53.700  1.00  0.00     0.019 A 
ATOM     37  C   UNL     1      14.861   7.331  54.824  1.00  0.00     0.013 A 
ATOM     38  C   UNL     1      15.900   6.632  52.765  1.00  0.00     0.121 A 
ATOM     39  C   UNL     1      14.395   6.031  54.972  1.00  0.00     0.021 A 
ATOM     40  N   UNL     1      15.460   5.375  52.907  1.00  0.00    -0.264 NA
ATOM     41  C   UNL     1      14.697   5.101  53.978  1.00  0.00     0.111 A 
ENDBRANCH  34  36
ENDBRANCH  28  30
ENDBRANCH   6  28
TORSDOF 7
ENDMDL
MODEL 17
REMARK VINA RESULT:   -10.819      3.656     12.080
REMARK INTER + INTRA:         -14.241
REMARK INTER:                 -12.908
REMARK INTRA:                  -1.334
REMARK CONF_INDEPENDENT:        2.088
REMARK UNBOUND:                -1.334
REMARK SMILES Cc1cn(-c2cc(NC(=O)c3ccc(C)c(Nc4nccc(-c5cccnc5)n4)c3)cc(C(F)(F)F)c2)cn1
REMARK SMILES IDX 11 1 12 2 13 3 14 4 15 5 16 6 30 7 9 8 10 9 8 10 7 12 6 13
REMARK SMILES IDX 31 14 5 15 32 16 37 17 4 18 3 19 38 20 2 21 39 22 1 23 33 24
REMARK SMILES IDX 34 25 35 26 36 27 17 28 18 30 19 31 29 32 20 33 22 34 21 35
REMARK SMILES IDX 23 36 24 37 28 38 25 39 27 40 26 41
REMARK H PARENT 8 11 17 29
ROOT
ATOM      1  C   UNL     1      25.739   3.569  51.913  1.00  0.00     0.042 A 
ATOM      2  C   UNL     1      24.906   3.488  50.787  1.00  0.00     0.014 A 
ATOM      3  C   UNL     1      23.560   3.849  50.851  1.00  0.00     0.006 A 
ATOM      4  C   UNL     1      22.972   4.221  52.049  1.00  0.00    -0.027 A 
ATOM      5  C   UNL     1      21.500   4.604  52.105  1.00  0.00     0.046 C 
ATOM      6  C   UNL     1      23.769   4.203  53.193  1.00  0.00     0.045 A 
ATOM      7  C   UNL     1      25.124   3.862  53.103  1.00  0.00     0.040 A 
ENDROOT
BRANCH   1   8
ATOM      8  C   UNL     1      27.134   3.090  51.967  1.00  0.00     0.255 C 
ATOM      9  O   UNL     1      27.728   3.106  50.916  1.00  0.00    -0.269 OA
ATOM     10  N   UNL     1      27.660   2.935  53.191  1.00  0.00    -0.322 N 
ATOM     11  H   UNL     1      27.034   3.096  53.993  1.00  0.00     0.170 HD
BRANCH  10  12
ATOM     12  C   UNL     1      28.971   2.577  53.477  1.00  0.00     0.044 A 
ATOM     13  C   UNL     1      29.648   1.610  52.693  1.00  0.00     0.052 A 
ATOM     14  C   UNL     1      29.618   3.079  54.627  1.00  0.00     0.039 A 
ATOM     15  C   UNL     1      30.971   1.251  52.966  1.00  0.00     0.049 A 
ATOM     16  C   UNL     1      30.973   2.728  54.891  1.00  0.00     0.060 A 
ATOM     17  C   UNL     1      31.613   1.794  54.074  1.00  0.00     0.039 A 
BRANCH  15  18
ATOM     18  N   UNL     1      31.664   0.326  52.170  1.00  0.00    -0.306 N 
ATOM     19  C   UNL     1      31.271  -0.265  50.971  1.00  0.00     0.116 A 
ATOM     20  C   UNL     1      32.833  -0.259  52.456  1.00  0.00     0.204 A 
ATOM     21  C   UNL     1      32.219  -1.156  50.609  1.00  0.00     0.056 A 
ATOM     22  N   UNL     1      33.204  -1.114  51.534  1.00  0.00    -0.242 NA
ATOM     23  C   UNL     1      32.253  -2.028  49.377  1.00  0.00     0.068 C 
ENDBRANCH  15  18
BRANCH  16  24
ATOM     24  C   UNL     1      31.653   3.321  56.083  1.00  0.00     0.416 C 
ATOM     25  F   UNL     1      31.038   4.397  56.612  1.00  0.00    -0.166 F 
ATOM     26  F   UNL     1      31.650   2.473  57.105  1.00  0.00    -0.166 F 
ATOM     27  F   UNL     1      32.889   3.777  55.794  1.00  0.00    -0.166 F 
ENDBRANCH  16  24
ENDBRANCH  10  12
ENDBRANCH   1   8
BRANCH   6  28
ATOM     28  N   UNL     1      23.243   4.729  54.380  1.00  0.00    -0.324 N 
ATOM     29  H   UNL     1      22.687   4.134  55.010  1.00  0.00     0.170 HD
BRANCH  28  30
ATOM     30  C   UNL     1      23.479   6.067  54.702  1.00  0.00     0.227 A 
ATOM     31  N   UNL     1      24.501   6.597  55.363  1.00  0.00    -0.221 NA
ATOM     32  N   UNL     1      22.407   6.787  54.282  1.00  0.00    -0.213 NA
ATOM     33  C   UNL     1      24.459   7.925  55.577  1.00  0.00     0.117 A 
ATOM     34  C   UNL     1      22.396   8.099  54.547  1.00  0.00     0.077 A 
ATOM     35  C   UNL     1      23.421   8.687  55.200  1.00  0.00     0.049 A 
BRANCH  34  36
ATOM     36  C   UNL     1      21.218   8.847  54.036  1.00  0.00     0.019 A 
ATOM     37  C   UNL     1      19.906   8.407  54.275  1.00  0.00     0.013 A 
ATOM     38  C   UNL     1      21.391  10.022  53.279  1.00  0.00     0.121 A 
ATOM     39  C   UNL     1      18.845   9.133  53.751  1.00  0.00     0.021 A 
ATOM     40  N   UNL     1      20.371  10.723  52.765  1.00  0.00    -0.264 NA
ATOM     41  C   UNL     1      19.127  10.293  53.030  1.00  0.00     0.111 A 
ENDBRANCH  34  36
ENDBRANCH  28  30
ENDBRANCH   6  28
TORSDOF 7
ENDMDL
MODEL 18
REMARK VINA RESULT:   -10.507      5.774     10.923
REMARK INTER + INTRA:         -13.764
REMARK INTER:                 -12.595
REMARK INTRA:                  -1.169
REMARK CONF_INDEPENDENT:        2.088
REMARK UNBOUND:                -1.169
REMARK SMILES Cc1cn(-c2cc(NC(=O)c3ccc(C)c(Nc4nccc(-c5cccnc5)n4)c3)cc(C(F)(F)F)c2)cn1
REMARK SMILES IDX 11 1 12 2 13 3 14 4 15 5 16 6 30 7 9 8 10 9 8 10 7 12 6 13
REMARK SMILES IDX 31 14 5 15 32 16 37 17 4 18 3 19 38 20 2 21 39 22 1 23 33 24
REMARK SMILES IDX 34 25 35 26 36 27 17 28 18 30 19 31 29 32 20 33 22 34 21 35
REMARK SMILES IDX 23 36 24 37 28 38 25 39 27 40 26 41
REMARK H PARENT 8 11 17 29
ROOT
ATOM      1  C   UNL     1      22.409   6.427  55.303  1.00  0.00     0.042 A 
ATOM      2  C   UNL     1      21.698   7.556  54.867  1.00  0.00     0.014 A 
ATOM      3  C   UNL     1      21.206   8.498  55.770  1.00  0.00     0.006 A 
ATOM      4  C   UNL     1      21.328   8.314  57.138  1.00  0.00    -0.027 A 
ATOM      5  C   UNL     1      20.780   9.348  58.113  1.00  0.00     0.046 C 
ATOM      6  C   UNL     1      21.942   7.144  57.581  1.00  0.00     0.045 A 
ATOM      7  C   UNL     1      22.451   6.222  56.657  1.00  0.00     0.040 A 
ENDROOT
BRANCH   1   8
ATOM      8  C   UNL     1      22.852   5.321  54.431  1.00  0.00     0.255 C 
ATOM      9  O   UNL     1      22.031   4.460  54.229  1.00  0.00    -0.269 OA
ATOM     10  N   UNL     1      24.002   5.514  53.768  1.00  0.00    -0.322 N 
ATOM     11  H   UNL     1      24.516   6.384  53.968  1.00  0.00     0.170 HD
BRANCH  10  12
ATOM     12  C   UNL     1      24.563   4.649  52.837  1.00  0.00     0.044 A 
ATOM     13  C   UNL     1      23.812   4.191  51.726  1.00  0.00     0.052 A 
ATOM     14  C   UNL     1      25.852   4.111  53.042  1.00  0.00     0.039 A 
ATOM     15  C   UNL     1      24.370   3.328  50.779  1.00  0.00     0.049 A 
ATOM     16  C   UNL     1      26.427   3.250  52.065  1.00  0.00     0.060 A 
ATOM     17  C   UNL     1      25.662   2.847  50.968  1.00  0.00     0.039 A 
BRANCH  15  18
ATOM     18  N   UNL     1      23.650   2.902  49.653  1.00  0.00    -0.306 N 
ATOM     19  C   UNL     1      22.852   1.770  49.501  1.00  0.00     0.116 A 
ATOM     20  C   UNL     1      23.656   3.464  48.438  1.00  0.00     0.204 A 
ATOM     21  C   UNL     1      22.427   1.722  48.220  1.00  0.00     0.056 A 
ATOM     22  N   UNL     1      22.914   2.808  47.580  1.00  0.00    -0.242 NA
ATOM     23  C   UNL     1      21.525   0.695  47.578  1.00  0.00     0.068 C 
ENDBRANCH  15  18
BRANCH  16  24
ATOM     24  C   UNL     1      27.817   2.744  52.277  1.00  0.00     0.416 C 
ATOM     25  F   UNL     1      28.435   3.220  53.377  1.00  0.00    -0.166 F 
ATOM     26  F   UNL     1      27.818   1.436  52.506  1.00  0.00    -0.166 F 
ATOM     27  F   UNL     1      28.649   3.092  51.274  1.00  0.00    -0.166 F 
ENDBRANCH  16  24
ENDBRANCH  10  12
ENDBRANCH   1   8
BRANCH   6  28
ATOM     28  N   UNL     1      22.221   7.012  58.947  1.00  0.00    -0.324 N 
ATOM     29  H   UNL     1      21.666   6.371  59.531  1.00  0.00     0.170 HD
BRANCH  28  30
ATOM     30  C   UNL     1      23.258   7.758  59.511  1.00  0.00     0.227 A 
ATOM     31  N   UNL     1      23.459   9.069  59.469  1.00  0.00    -0.221 NA
ATOM     32  N   UNL     1      24.129   6.887  60.081  1.00  0.00    -0.213 NA
ATOM     33  C   UNL     1      24.574   9.531  60.065  1.00  0.00     0.117 A 
ATOM     34  C   UNL     1      25.240   7.389  60.633  1.00  0.00     0.077 A 
ATOM     35  C   UNL     1      25.481   8.718  60.632  1.00  0.00     0.049 A 
BRANCH  34  36
ATOM     36  C   UNL     1      26.143   6.399  61.274  1.00  0.00     0.019 A 
ATOM     37  C   UNL     1      26.400   6.422  62.654  1.00  0.00     0.013 A 
ATOM     38  C   UNL     1      26.784   5.410  60.502  1.00  0.00     0.121 A 
ATOM     39  C   UNL     1      27.273   5.487  63.195  1.00  0.00     0.021 A 
ATOM     40  N   UNL     1      27.633   4.510  61.016  1.00  0.00    -0.264 NA
ATOM     41  C   UNL     1      27.840   4.540  62.342  1.00  0.00     0.111 A 
ENDBRANCH  34  36
ENDBRANCH  28  30
ENDBRANCH   6  28
TORSDOF 7
ENDMDL
MODEL 19
REMARK VINA RESULT:   -10.471      8.242     14.954
REMARK INTER + INTRA:         -13.902
REMARK INTER:                 -12.559
REMARK INTRA:                  -1.343
REMARK CONF_INDEPENDENT:        2.088
REMARK UNBOUND:                -1.343
REMARK SMILES Cc1cn(-c2cc(NC(=O)c3ccc(C)c(Nc4nccc(-c5cccnc5)n4)c3)cc(C(F)(F)F)c2)cn1
REMARK SMILES IDX 11 1 12 2 13 3 14 4 15 5 16 6 30 7 9 8 10 9 8 10 7 12 6 13
REMARK SMILES IDX 31 14 5 15 32 16 37 17 4 18 3 19 38 20 2 21 39 22 1 23 33 24
REMARK SMILES IDX 34 25 35 26 36 27 17 28 18 30 19 31 29 32 20 33 22 34 21 35
REMARK SMILES IDX 23 36 24 37 28 38 25 39 27 40 26 41
REMARK H PARENT 8 11 17 29
ROOT
ATOM      1  C   UNL     1      36.174  -1.572  49.400  1.00  0.00     0.042 A 
ATOM      2  C   UNL     1      35.440  -2.754  49.222  1.00  0.00     0.014 A 
ATOM      3  C   UNL     1      34.054  -2.782  49.387  1.00  0.00     0.006 A 
ATOM      4  C   UNL     1      33.359  -1.662  49.815  1.00  0.00    -0.027 A 
ATOM      5  C   UNL     1      31.849  -1.709  49.998  1.00  0.00     0.046 C 
ATOM      6  C   UNL     1      34.096  -0.512  50.094  1.00  0.00     0.045 A 
ATOM      7  C   UNL     1      35.483  -0.498  49.898  1.00  0.00     0.040 A 
ENDROOT
BRANCH   1   8
ATOM      8  C   UNL     1      37.647  -1.481  49.371  1.00  0.00     0.255 C 
ATOM      9  O   UNL     1      38.116  -0.505  49.903  1.00  0.00    -0.269 OA
ATOM     10  N   UNL     1      38.301  -2.589  48.992  1.00  0.00    -0.322 N 
ATOM     11  H   UNL     1      37.728  -3.390  48.689  1.00  0.00     0.170 HD
BRANCH  10  12
ATOM     12  C   UNL     1      39.680  -2.756  48.970  1.00  0.00     0.044 A 
ATOM     13  C   UNL     1      40.440  -2.676  50.163  1.00  0.00     0.052 A 
ATOM     14  C   UNL     1      40.368  -2.888  47.744  1.00  0.00     0.039 A 
ATOM     15  C   UNL     1      41.827  -2.852  50.153  1.00  0.00     0.049 A 
ATOM     16  C   UNL     1      41.777  -3.089  47.738  1.00  0.00     0.060 A 
ATOM     17  C   UNL     1      42.485  -3.034  48.941  1.00  0.00     0.039 A 
BRANCH  15  18
ATOM     18  N   UNL     1      42.584  -2.817  51.333  1.00  0.00    -0.306 N 
ATOM     19  C   UNL     1      42.782  -3.823  52.277  1.00  0.00     0.116 A 
ATOM     20  C   UNL     1      43.212  -1.755  51.851  1.00  0.00     0.204 A 
ATOM     21  C   UNL     1      43.512  -3.313  53.292  1.00  0.00     0.056 A 
ATOM     22  N   UNL     1      43.799  -2.026  52.991  1.00  0.00    -0.242 NA
ATOM     23  C   UNL     1      43.996  -4.019  54.535  1.00  0.00     0.068 C 
ENDBRANCH  15  18
BRANCH  16  24
ATOM     24  C   UNL     1      42.472  -3.287  46.430  1.00  0.00     0.416 C 
ATOM     25  F   UNL     1      41.810  -2.812  45.356  1.00  0.00    -0.166 F 
ATOM     26  F   UNL     1      43.605  -2.596  46.382  1.00  0.00    -0.166 F 
ATOM     27  F   UNL     1      42.651  -4.591  46.136  1.00  0.00    -0.166 F 
ENDBRANCH  16  24
ENDBRANCH  10  12
ENDBRANCH   1   8
BRANCH   6  28
ATOM     28  N   UNL     1      33.402   0.673  50.369  1.00  0.00    -0.324 N 
ATOM     29  H   UNL     1      33.039   1.253  49.599  1.00  0.00     0.170 HD
BRANCH  28  30
ATOM     30  C   UNL     1      33.208   1.063  51.696  1.00  0.00     0.227 A 
ATOM     31  N   UNL     1      33.901   1.934  52.418  1.00  0.00    -0.221 NA
ATOM     32  N   UNL     1      32.189   0.319  52.198  1.00  0.00    -0.213 NA
ATOM     33  C   UNL     1      33.525   2.093  53.701  1.00  0.00     0.117 A 
ATOM     34  C   UNL     1      31.872   0.489  53.487  1.00  0.00     0.077 A 
ATOM     35  C   UNL     1      32.536   1.376  54.258  1.00  0.00     0.049 A 
BRANCH  34  36
ATOM     36  C   UNL     1      30.727  -0.322  53.979  1.00  0.00     0.019 A 
ATOM     37  C   UNL     1      29.628   0.271  54.622  1.00  0.00     0.013 A 
ATOM     38  C   UNL     1      30.724  -1.722  53.825  1.00  0.00     0.121 A 
ATOM     39  C   UNL     1      28.599  -0.540  55.083  1.00  0.00     0.021 A 
ATOM     40  N   UNL     1      29.738  -2.509  54.274  1.00  0.00    -0.264 NA
ATOM     41  C   UNL     1      28.688  -1.914  54.863  1.00  0.00     0.111 A 
ENDBRANCH  34  36
ENDBRANCH  28  30
ENDBRANCH   6  28
TORSDOF 7
ENDMDL
MODEL 20
REMARK VINA RESULT:   -10.444      3.264     11.998
REMARK INTER + INTRA:         -13.751
REMARK INTER:                 -12.532
REMARK INTRA:                  -1.220
REMARK CONF_INDEPENDENT:        2.088
REMARK UNBOUND:                -1.220
REMARK SMILES Cc1cn(-c2cc(NC(=O)c3ccc(C)c(Nc4nccc(-c5cccnc5)n4)c3)cc(C(F)(F)F)c2)cn1
REMARK SMILES IDX 11 1 12 2 13 3 14 4 15 5 16 6 30 7 9 8 10 9 8 10 7 12 6 13
REMARK SMILES IDX 31 14 5 15 32 16 37 17 4 18 3 19 38 20 2 21 39 22 1 23 33 24
REMARK SMILES IDX 34 25 35 26 36 27 17 28 18 30 19 31 29 32 20 33 22 34 21 35
REMARK SMILES IDX 23 36 24 37 28 38 25 39 27 40 26 41
REMARK H PARENT 8 11 17 29
ROOT
ATOM      1  C   UNL     1      25.389   3.708  51.182  1.00  0.00     0.042 A 
ATOM      2  C   UNL     1      25.605   3.972  49.821  1.00  0.00     0.014 A 
ATOM      3  C   UNL     1      24.656   4.646  49.052  1.00  0.00     0.006 A 
ATOM      4  C   UNL     1      23.427   5.007  49.581  1.00  0.00    -0.027 A 
ATOM      5  C   UNL     1      22.398   5.735  48.728  1.00  0.00     0.046 C 
ATOM      6  C   UNL     1      23.165   4.655  50.904  1.00  0.00     0.045 A 
ATOM      7  C   UNL     1      24.141   4.001  51.667  1.00  0.00     0.040 A 
ENDROOT
BRANCH   1   8
ATOM      8  C   UNL     1      26.278   2.894  52.034  1.00  0.00     0.255 C 
ATOM      9  O   UNL     1      25.882   2.698  53.157  1.00  0.00    -0.269 OA
ATOM     10  N   UNL     1      27.282   2.262  51.408  1.00  0.00    -0.322 N 
ATOM     11  H   UNL     1      27.394   2.445  50.401  1.00  0.00     0.170 HD
BRANCH  10  12
ATOM     12  C   UNL     1      28.184   1.383  51.994  1.00  0.00     0.044 A 
ATOM     13  C   UNL     1      29.400   1.050  51.347  1.00  0.00     0.052 A 
ATOM     14  C   UNL     1      27.856   0.709  53.191  1.00  0.00     0.039 A 
ATOM     15  C   UNL     1      30.318   0.174  51.933  1.00  0.00     0.049 A 
ATOM     16  C   UNL     1      28.803  -0.165  53.798  1.00  0.00     0.060 A 
ATOM     17  C   UNL     1      30.003  -0.443  53.140  1.00  0.00     0.039 A 
BRANCH  15  18
ATOM     18  N   UNL     1      31.543  -0.129  51.320  1.00  0.00    -0.306 N 
ATOM     19  C   UNL     1      31.846  -1.160  50.432  1.00  0.00     0.116 A 
ATOM     20  C   UNL     1      32.720   0.469  51.541  1.00  0.00     0.204 A 
ATOM     21  C   UNL     1      33.171  -1.116  50.171  1.00  0.00     0.056 A 
ATOM     22  N   UNL     1      33.694  -0.070  50.849  1.00  0.00    -0.242 NA
ATOM     23  C   UNL     1      33.967  -2.013  49.254  1.00  0.00     0.068 C 
ENDBRANCH  15  18
BRANCH  16  24
ATOM     24  C   UNL     1      28.453  -0.818  55.095  1.00  0.00     0.416 C 
ATOM     25  F   UNL     1      27.527  -1.794  55.011  1.00  0.00    -0.166 F 
ATOM     26  F   UNL     1      29.495  -1.471  55.597  1.00  0.00    -0.166 F 
ATOM     27  F   UNL     1      27.915   0.049  55.978  1.00  0.00    -0.166 F 
ENDBRANCH  16  24
ENDBRANCH  10  12
ENDBRANCH   1   8
BRANCH   6  28
ATOM     28  N   UNL     1      22.002   5.150  51.508  1.00  0.00    -0.324 N 
ATOM     29  H   UNL     1      21.125   5.211  50.972  1.00  0.00     0.170 HD
BRANCH  28  30
ATOM     30  C   UNL     1      22.041   5.558  52.842  1.00  0.00     0.227 A 
ATOM     31  N   UNL     1      21.907   4.827  53.941  1.00  0.00    -0.221 NA
ATOM     32  N   UNL     1      22.169   6.910  52.856  1.00  0.00    -0.213 NA
ATOM     33  C   UNL     1      21.942   5.486  55.115  1.00  0.00     0.117 A 
ATOM     34  C   UNL     1      22.167   7.523  54.045  1.00  0.00     0.077 A 
ATOM     35  C   UNL     1      22.051   6.821  55.192  1.00  0.00     0.049 A 
BRANCH  34  36
ATOM     36  C   UNL     1      22.344   8.999  54.007  1.00  0.00     0.019 A 
ATOM     37  C   UNL     1      23.403   9.629  54.681  1.00  0.00     0.013 A 
ATOM     38  C   UNL     1      21.437   9.811  53.300  1.00  0.00     0.121 A 
ATOM     39  C   UNL     1      23.505  11.014  54.631  1.00  0.00     0.021 A 
ATOM     40  N   UNL     1      21.525  11.146  53.255  1.00  0.00    -0.264 NA
ATOM     41  C   UNL     1      22.561  11.721  53.886  1.00  0.00     0.111 A 
ENDBRANCH  34  36
ENDBRANCH  28  30
ENDBRANCH   6  28
TORSDOF 7
ENDMDL
