MODEL 1
REMARK VINA RESULT:   -14.414      0.000      0.000
REMARK INTER + INTRA:         -17.674
REMARK INTER:                 -16.502
REMARK INTRA:                  -1.172
REMARK CONF_INDEPENDENT:        2.088
REMARK UNBOUND:                -1.172
REMARK SMILES Cc1cn(-c2cc(NC(=O)c3ccc(C)c(Nc4nccc(-c5cccnc5)n4)c3)cc(C(F)(F)F)c2)cn1
REMARK SMILES IDX 11 1 12 2 13 3 14 4 15 5 16 6 30 7 9 8 10 9 8 10 7 12 6 13
REMARK SMILES IDX 31 14 5 15 32 16 37 17 4 18 3 19 38 20 2 21 39 22 1 23 33 24
REMARK SMILES IDX 34 25 35 26 36 27 17 28 18 30 19 31 29 32 20 33 22 34 21 35
REMARK SMILES IDX 23 36 24 37 28 38 25 39 27 40 26 41
REMARK H PARENT 8 11 17 29
ROOT
ATOM      1  C   UNL     1      27.973   1.714  53.067  1.00  0.00     0.042 A 
ATOM      2  C   UNL     1      27.672   1.169  54.324  1.00  0.00     0.014 A 
ATOM      3  C   UNL     1      28.380   0.079  54.832  1.00  0.00     0.006 A 
ATOM      4  C   UNL     1      29.352  -0.561  54.080  1.00  0.00    -0.027 A 
ATOM      5  C   UNL     1      30.110  -1.754  54.645  1.00  0.00     0.046 C 
ATOM      6  C   UNL     1      29.584  -0.089  52.789  1.00  0.00     0.045 A 
ATOM      7  C   UNL     1      28.881   1.022  52.307  1.00  0.00     0.040 A 
ENDROOT
BRANCH   1   8
ATOM      8  C   UNL     1      27.198   2.778  52.401  1.00  0.00     0.255 C 
ATOM      9  O   UNL     1      27.515   3.016  51.261  1.00  0.00    -0.269 OA
ATOM     10  N   UNL     1      26.084   3.181  53.031  1.00  0.00    -0.322 N 
ATOM     11  H   UNL     1      25.893   2.767  53.954  1.00  0.00     0.170 HD
BRANCH  10  12
ATOM     12  C   UNL     1      25.164   4.105  52.551  1.00  0.00     0.044 A 
ATOM     13  C   UNL     1      24.241   4.732  53.424  1.00  0.00     0.052 A 
ATOM     14  C   UNL     1      25.047   4.349  51.166  1.00  0.00     0.039 A 
ATOM     15  C   UNL     1      23.318   5.670  52.953  1.00  0.00     0.049 A 
ATOM     16  C   UNL     1      24.122   5.321  50.690  1.00  0.00     0.060 A 
ATOM     17  C   UNL     1      23.250   5.939  51.590  1.00  0.00     0.039 A 
BRANCH  15  18
ATOM     18  N   UNL     1      22.428   6.328  53.815  1.00  0.00    -0.306 N 
ATOM     19  C   UNL     1      22.126   6.043  55.146  1.00  0.00     0.116 A 
ATOM     20  C   UNL     1      21.601   7.331  53.500  1.00  0.00     0.204 A 
ATOM     21  C   UNL     1      21.150   6.886  55.547  1.00  0.00     0.056 A 
ATOM     22  N   UNL     1      20.858   7.705  54.513  1.00  0.00    -0.242 NA
ATOM     23  C   UNL     1      20.504   6.978  56.908  1.00  0.00     0.068 C 
ENDBRANCH  15  18
BRANCH  16  24
ATOM     24  C   UNL     1      24.062   5.604  49.224  1.00  0.00     0.416 C 
ATOM     25  F   UNL     1      24.879   6.589  48.800  1.00  0.00    -0.166 F 
ATOM     26  F   UNL     1      24.495   4.565  48.520  1.00  0.00    -0.166 F 
ATOM     27  F   UNL     1      22.840   6.019  48.831  1.00  0.00    -0.166 F 
ENDBRANCH  16  24
ENDBRANCH  10  12
ENDBRANCH   1   8
BRANCH   6  28
ATOM     28  N   UNL     1      30.669  -0.611  52.074  1.00  0.00    -0.324 N 
ATOM     29  H   UNL     1      30.535  -1.409  51.436  1.00  0.00     0.170 HD
BRANCH  28  30
ATOM     30  C   UNL     1      31.934  -0.043  52.232  1.00  0.00     0.227 A 
ATOM     31  N   UNL     1      32.321   0.907  53.075  1.00  0.00    -0.221 NA
ATOM     32  N   UNL     1      32.749  -0.581  51.288  1.00  0.00    -0.213 NA
ATOM     33  C   UNL     1      33.603   1.308  52.988  1.00  0.00     0.117 A 
ATOM     34  C   UNL     1      34.006  -0.127  51.219  1.00  0.00     0.077 A 
ATOM     35  C   UNL     1      34.452   0.825  52.066  1.00  0.00     0.049 A 
BRANCH  34  36
ATOM     36  C   UNL     1      34.866  -0.772  50.193  1.00  0.00     0.019 A 
ATOM     37  C   UNL     1      36.195  -0.368  49.988  1.00  0.00     0.013 A 
ATOM     38  C   UNL     1      34.359  -1.805  49.381  1.00  0.00     0.121 A 
ATOM     39  C   UNL     1      36.944  -0.990  48.998  1.00  0.00     0.021 A 
ATOM     40  N   UNL     1      35.074  -2.403  48.419  1.00  0.00    -0.264 NA
ATOM     41  C   UNL     1      36.350  -2.015  48.262  1.00  0.00     0.111 A 
ENDBRANCH  34  36
ENDBRANCH  28  30
ENDBRANCH   6  28
TORSDOF 7
ENDMDL
MODEL 2
REMARK VINA RESULT:   -13.504      2.236      3.676
REMARK INTER + INTRA:         -16.794
REMARK INTER:                 -15.592
REMARK INTRA:                  -1.203
REMARK CONF_INDEPENDENT:        2.088
REMARK UNBOUND:                -1.203
REMARK SMILES Cc1cn(-c2cc(NC(=O)c3ccc(C)c(Nc4nccc(-c5cccnc5)n4)c3)cc(C(F)(F)F)c2)cn1
REMARK SMILES IDX 11 1 12 2 13 3 14 4 15 5 16 6 30 7 9 8 10 9 8 10 7 12 6 13
REMARK SMILES IDX 31 14 5 15 32 16 37 17 4 18 3 19 38 20 2 21 39 22 1 23 33 24
REMARK SMILES IDX 34 25 35 26 36 27 17 28 18 30 19 31 29 32 20 33 22 34 21 35
REMARK SMILES IDX 23 36 24 37 28 38 25 39 27 40 26 41
REMARK H PARENT 8 11 17 29
ROOT
ATOM      1  C   UNL     1      28.254   1.438  53.410  1.00  0.00     0.042 A 
ATOM      2  C   UNL     1      28.025   0.832  54.654  1.00  0.00     0.014 A 
ATOM      3  C   UNL     1      28.786  -0.257  55.083  1.00  0.00     0.006 A 
ATOM      4  C   UNL     1      29.741  -0.834  54.262  1.00  0.00    -0.027 A 
ATOM      5  C   UNL     1      30.558  -2.027  54.740  1.00  0.00     0.046 C 
ATOM      6  C   UNL     1      29.902  -0.301  52.984  1.00  0.00     0.045 A 
ATOM      7  C   UNL     1      29.146   0.807  52.582  1.00  0.00     0.040 A 
ENDROOT
BRANCH   1   8
ATOM      8  C   UNL     1      27.419   2.506  52.826  1.00  0.00     0.255 C 
ATOM      9  O   UNL     1      27.780   2.916  51.749  1.00  0.00    -0.269 OA
ATOM     10  N   UNL     1      26.235   2.723  53.419  1.00  0.00    -0.322 N 
ATOM     11  H   UNL     1      26.032   2.178  54.268  1.00  0.00     0.170 HD
BRANCH  10  12
ATOM     12  C   UNL     1      25.260   3.614  52.991  1.00  0.00     0.044 A 
ATOM     13  C   UNL     1      25.073   3.882  51.612  1.00  0.00     0.052 A 
ATOM     14  C   UNL     1      24.514   4.365  53.926  1.00  0.00     0.039 A 
ATOM     15  C   UNL     1      24.088   4.770  51.172  1.00  0.00     0.049 A 
ATOM     16  C   UNL     1      23.495   5.252  53.476  1.00  0.00     0.060 A 
ATOM     17  C   UNL     1      23.325   5.464  52.106  1.00  0.00     0.039 A 
BRANCH  15  18
ATOM     18  N   UNL     1      23.867   5.010  49.808  1.00  0.00    -0.306 N 
ATOM     19  C   UNL     1      23.864   6.223  49.121  1.00  0.00     0.116 A 
ATOM     20  C   UNL     1      23.515   4.110  48.882  1.00  0.00     0.204 A 
ATOM     21  C   UNL     1      23.520   5.981  47.838  1.00  0.00     0.056 A 
ATOM     22  N   UNL     1      23.338   4.649  47.701  1.00  0.00    -0.242 NA
ATOM     23  C   UNL     1      23.399   6.972  46.705  1.00  0.00     0.068 C 
ENDBRANCH  15  18
BRANCH  16  24
ATOM     24  C   UNL     1      22.680   5.989  54.489  1.00  0.00     0.416 C 
ATOM     25  F   UNL     1      22.315   5.262  55.563  1.00  0.00    -0.166 F 
ATOM     26  F   UNL     1      23.382   6.969  55.045  1.00  0.00    -0.166 F 
ATOM     27  F   UNL     1      21.504   6.418  53.986  1.00  0.00    -0.166 F 
ENDBRANCH  16  24
ENDBRANCH  10  12
ENDBRANCH   1   8
BRANCH   6  28
ATOM     28  N   UNL     1      30.967  -0.760  52.199  1.00  0.00    -0.324 N 
ATOM     29  H   UNL     1      30.836  -1.556  51.559  1.00  0.00     0.170 HD
BRANCH  28  30
ATOM     30  C   UNL     1      32.210  -0.130  52.293  1.00  0.00     0.227 A 
ATOM     31  N   UNL     1      32.579   0.870  53.083  1.00  0.00    -0.221 NA
ATOM     32  N   UNL     1      33.018  -0.670  51.344  1.00  0.00    -0.213 NA
ATOM     33  C   UNL     1      33.839   1.323  52.938  1.00  0.00     0.117 A 
ATOM     34  C   UNL     1      34.250  -0.165  51.216  1.00  0.00     0.077 A 
ATOM     35  C   UNL     1      34.679   0.841  52.009  1.00  0.00     0.049 A 
BRANCH  34  36
ATOM     36  C   UNL     1      35.107  -0.813  50.189  1.00  0.00     0.019 A 
ATOM     37  C   UNL     1      36.405  -0.353  49.917  1.00  0.00     0.013 A 
ATOM     38  C   UNL     1      34.625  -1.907  49.443  1.00  0.00     0.121 A 
ATOM     39  C   UNL     1      37.151  -0.982  48.928  1.00  0.00     0.021 A 
ATOM     40  N   UNL     1      35.336  -2.512  48.483  1.00  0.00    -0.264 NA
ATOM     41  C   UNL     1      36.584  -2.069  48.262  1.00  0.00     0.111 A 
ENDBRANCH  34  36
ENDBRANCH  28  30
ENDBRANCH   6  28
TORSDOF 7
ENDMDL
MODEL 3
REMARK VINA RESULT:   -12.983      1.194      1.821
REMARK INTER + INTRA:         -16.190
REMARK INTER:                 -15.071
REMARK INTRA:                  -1.119
REMARK CONF_INDEPENDENT:        2.088
REMARK UNBOUND:                -1.119
REMARK SMILES Cc1cn(-c2cc(NC(=O)c3ccc(C)c(Nc4nccc(-c5cccnc5)n4)c3)cc(C(F)(F)F)c2)cn1
REMARK SMILES IDX 11 1 12 2 13 3 14 4 15 5 16 6 30 7 9 8 10 9 8 10 7 12 6 13
REMARK SMILES IDX 31 14 5 15 32 16 37 17 4 18 3 19 38 20 2 21 39 22 1 23 33 24
REMARK SMILES IDX 34 25 35 26 36 27 17 28 18 30 19 31 29 32 20 33 22 34 21 35
REMARK SMILES IDX 23 36 24 37 28 38 25 39 27 40 26 41
REMARK H PARENT 8 11 17 29
ROOT
ATOM      1  C   UNL     1      28.347   1.729  53.128  1.00  0.00     0.042 A 
ATOM      2  C   UNL     1      27.940   0.959  54.228  1.00  0.00     0.014 A 
ATOM      3  C   UNL     1      28.774  -0.012  54.783  1.00  0.00     0.006 A 
ATOM      4  C   UNL     1      30.003  -0.312  54.219  1.00  0.00    -0.027 A 
ATOM      5  C   UNL     1      30.899  -1.380  54.831  1.00  0.00     0.046 C 
ATOM      6  C   UNL     1      30.369   0.377  53.063  1.00  0.00     0.045 A 
ATOM      7  C   UNL     1      29.529   1.366  52.536  1.00  0.00     0.040 A 
ENDROOT
BRANCH   1   8
ATOM      8  C   UNL     1      27.486   2.683  52.402  1.00  0.00     0.255 C 
ATOM      9  O   UNL     1      27.763   2.851  51.239  1.00  0.00    -0.269 OA
ATOM     10  N   UNL     1      26.360   3.059  53.027  1.00  0.00    -0.322 N 
ATOM     11  H   UNL     1      26.218   2.707  53.984  1.00  0.00     0.170 HD
BRANCH  10  12
ATOM     12  C   UNL     1      25.369   3.878  52.501  1.00  0.00     0.044 A 
ATOM     13  C   UNL     1      24.394   4.471  53.341  1.00  0.00     0.052 A 
ATOM     14  C   UNL     1      25.238   4.040  51.105  1.00  0.00     0.039 A 
ATOM     15  C   UNL     1      23.400   5.305  52.823  1.00  0.00     0.049 A 
ATOM     16  C   UNL     1      24.237   4.908  50.580  1.00  0.00     0.060 A 
ATOM     17  C   UNL     1      23.315   5.497  51.448  1.00  0.00     0.039 A 
BRANCH  15  18
ATOM     18  N   UNL     1      22.456   5.931  53.651  1.00  0.00    -0.306 N 
ATOM     19  C   UNL     1      21.864   7.185  53.512  1.00  0.00     0.116 A 
ATOM     20  C   UNL     1      21.990   5.476  54.820  1.00  0.00     0.204 A 
ATOM     21  C   UNL     1      21.082   7.404  54.592  1.00  0.00     0.056 A 
ATOM     22  N   UNL     1      21.149   6.310  55.383  1.00  0.00    -0.242 NA
ATOM     23  C   UNL     1      20.224   8.610  54.887  1.00  0.00     0.068 C 
ENDBRANCH  15  18
BRANCH  16  24
ATOM     24  C   UNL     1      24.160   5.109  49.102  1.00  0.00     0.416 C 
ATOM     25  F   UNL     1      24.629   4.084  48.362  1.00  0.00    -0.166 F 
ATOM     26  F   UNL     1      22.897   5.185  48.696  1.00  0.00    -0.166 F 
ATOM     27  F   UNL     1      24.898   6.159  48.687  1.00  0.00    -0.166 F 
ENDBRANCH  16  24
ENDBRANCH  10  12
ENDBRANCH   1   8
BRANCH   6  28
ATOM     28  N   UNL     1      31.669   0.209  52.570  1.00  0.00    -0.324 N 
ATOM     29  H   UNL     1      32.476   0.572  53.098  1.00  0.00     0.170 HD
BRANCH  28  30
ATOM     30  C   UNL     1      31.863  -0.455  51.357  1.00  0.00     0.227 A 
ATOM     31  N   UNL     1      30.965  -1.041  50.576  1.00  0.00    -0.221 NA
ATOM     32  N   UNL     1      33.199  -0.484  51.113  1.00  0.00    -0.213 NA
ATOM     33  C   UNL     1      31.431  -1.654  49.471  1.00  0.00     0.117 A 
ATOM     34  C   UNL     1      33.617  -1.133  50.020  1.00  0.00     0.077 A 
ATOM     35  C   UNL     1      32.740  -1.729  49.184  1.00  0.00     0.049 A 
BRANCH  34  36
ATOM     36  C   UNL     1      35.083  -1.106  49.778  1.00  0.00     0.019 A 
ATOM     37  C   UNL     1      35.768  -2.228  49.286  1.00  0.00     0.013 A 
ATOM     38  C   UNL     1      35.832   0.055  50.055  1.00  0.00     0.121 A 
ATOM     39  C   UNL     1      37.143  -2.153  49.103  1.00  0.00     0.021 A 
ATOM     40  N   UNL     1      37.159   0.130  49.889  1.00  0.00    -0.264 NA
ATOM     41  C   UNL     1      37.785  -0.949  49.392  1.00  0.00     0.111 A 
ENDBRANCH  34  36
ENDBRANCH  28  30
ENDBRANCH   6  28
TORSDOF 7
ENDMDL
MODEL 4
REMARK VINA RESULT:   -12.349      1.215      1.794
REMARK INTER + INTRA:         -15.822
REMARK INTER:                 -14.437
REMARK INTRA:                  -1.385
REMARK CONF_INDEPENDENT:        2.088
REMARK UNBOUND:                -1.385
REMARK SMILES Cc1cn(-c2cc(NC(=O)c3ccc(C)c(Nc4nccc(-c5cccnc5)n4)c3)cc(C(F)(F)F)c2)cn1
REMARK SMILES IDX 11 1 12 2 13 3 14 4 15 5 16 6 30 7 9 8 10 9 8 10 7 12 6 13
REMARK SMILES IDX 31 14 5 15 32 16 37 17 4 18 3 19 38 20 2 21 39 22 1 23 33 24
REMARK SMILES IDX 34 25 35 26 36 27 17 28 18 30 19 31 29 32 20 33 22 34 21 35
REMARK SMILES IDX 23 36 24 37 28 38 25 39 27 40 26 41
REMARK H PARENT 8 11 17 29
ROOT
ATOM      1  C   UNL     1      28.004   1.874  53.144  1.00  0.00     0.042 A 
ATOM      2  C   UNL     1      27.661   0.538  53.400  1.00  0.00     0.014 A 
ATOM      3  C   UNL     1      28.561  -0.341  54.005  1.00  0.00     0.006 A 
ATOM      4  C   UNL     1      29.857   0.049  54.300  1.00  0.00    -0.027 A 
ATOM      5  C   UNL     1      30.830  -0.923  54.953  1.00  0.00     0.046 C 
ATOM      6  C   UNL     1      30.237   1.344  53.953  1.00  0.00     0.045 A 
ATOM      7  C   UNL     1      29.312   2.219  53.370  1.00  0.00     0.040 A 
ENDROOT
BRANCH   1   8
ATOM      8  C   UNL     1      27.166   2.832  52.398  1.00  0.00     0.255 C 
ATOM      9  O   UNL     1      27.360   2.873  51.207  1.00  0.00    -0.269 OA
ATOM     10  N   UNL     1      26.128   3.356  53.067  1.00  0.00    -0.322 N 
ATOM     11  H   UNL     1      26.036   3.103  54.061  1.00  0.00     0.170 HD
BRANCH  10  12
ATOM     12  C   UNL     1      25.165   4.209  52.541  1.00  0.00     0.044 A 
ATOM     13  C   UNL     1      24.233   4.861  53.386  1.00  0.00     0.052 A 
ATOM     14  C   UNL     1      25.016   4.350  51.144  1.00  0.00     0.039 A 
ATOM     15  C   UNL     1      23.267   5.729  52.868  1.00  0.00     0.049 A 
ATOM     16  C   UNL     1      24.047   5.252  50.620  1.00  0.00     0.060 A 
ATOM     17  C   UNL     1      23.167   5.898  51.491  1.00  0.00     0.039 A 
BRANCH  15  18
ATOM     18  N   UNL     1      22.367   6.412  53.699  1.00  0.00    -0.306 N 
ATOM     19  C   UNL     1      22.145   6.255  55.066  1.00  0.00     0.116 A 
ATOM     20  C   UNL     1      21.453   7.313  53.321  1.00  0.00     0.204 A 
ATOM     21  C   UNL     1      21.125   7.065  55.424  1.00  0.00     0.056 A 
ATOM     22  N   UNL     1      20.727   7.743  54.324  1.00  0.00    -0.242 NA
ATOM     23  C   UNL     1      20.532   7.260  56.799  1.00  0.00     0.068 C 
ENDBRANCH  15  18
BRANCH  16  24
ATOM     24  C   UNL     1      23.952   5.427  49.139  1.00  0.00     0.416 C 
ATOM     25  F   UNL     1      24.276   6.656  48.689  1.00  0.00    -0.166 F 
ATOM     26  F   UNL     1      24.836   4.662  48.510  1.00  0.00    -0.166 F 
ATOM     27  F   UNL     1      22.696   5.248  48.681  1.00  0.00    -0.166 F 
ENDBRANCH  16  24
ENDBRANCH  10  12
ENDBRANCH   1   8
BRANCH   6  28
ATOM     28  N   UNL     1      31.485   1.812  54.386  1.00  0.00    -0.324 N 
ATOM     29  H   UNL     1      31.544   2.510  55.140  1.00  0.00     0.170 HD
BRANCH  28  30
ATOM     30  C   UNL     1      32.647   1.323  53.787  1.00  0.00     0.227 A 
ATOM     31  N   UNL     1      33.912   1.534  54.129  1.00  0.00    -0.221 NA
ATOM     32  N   UNL     1      32.278   0.616  52.688  1.00  0.00    -0.213 NA
ATOM     33  C   UNL     1      34.853   0.972  53.346  1.00  0.00     0.117 A 
ATOM     34  C   UNL     1      33.249   0.104  51.923  1.00  0.00     0.077 A 
ATOM     35  C   UNL     1      34.551   0.276  52.239  1.00  0.00     0.049 A 
BRANCH  34  36
ATOM     36  C   UNL     1      32.793  -0.690  50.752  1.00  0.00     0.019 A 
ATOM     37  C   UNL     1      31.429  -0.879  50.478  1.00  0.00     0.013 A 
ATOM     38  C   UNL     1      33.729  -1.292  49.888  1.00  0.00     0.121 A 
ATOM     39  C   UNL     1      31.062  -1.651  49.383  1.00  0.00     0.021 A 
ATOM     40  N   UNL     1      33.380  -2.045  48.837  1.00  0.00    -0.264 NA
ATOM     41  C   UNL     1      32.069  -2.187  48.582  1.00  0.00     0.111 A 
ENDBRANCH  34  36
ENDBRANCH  28  30
ENDBRANCH   6  28
TORSDOF 7
ENDMDL
MODEL 5
REMARK VINA RESULT:   -12.104      1.543      3.597
REMARK INTER + INTRA:         -15.807
REMARK INTER:                 -14.192
REMARK INTRA:                  -1.614
REMARK CONF_INDEPENDENT:        2.088
REMARK UNBOUND:                -1.614
REMARK SMILES Cc1cn(-c2cc(NC(=O)c3ccc(C)c(Nc4nccc(-c5cccnc5)n4)c3)cc(C(F)(F)F)c2)cn1
REMARK SMILES IDX 11 1 12 2 13 3 14 4 15 5 16 6 30 7 9 8 10 9 8 10 7 12 6 13
REMARK SMILES IDX 31 14 5 15 32 16 37 17 4 18 3 19 38 20 2 21 39 22 1 23 33 24
REMARK SMILES IDX 34 25 35 26 36 27 17 28 18 30 19 31 29 32 20 33 22 34 21 35
REMARK SMILES IDX 23 36 24 37 28 38 25 39 27 40 26 41
REMARK H PARENT 8 11 17 29
ROOT
ATOM      1  C   UNL     1      27.734   1.659  52.859  1.00  0.00     0.042 A 
ATOM      2  C   UNL     1      27.446   1.041  54.085  1.00  0.00     0.014 A 
ATOM      3  C   UNL     1      28.170  -0.066  54.529  1.00  0.00     0.006 A 
ATOM      4  C   UNL     1      29.146  -0.651  53.739  1.00  0.00    -0.027 A 
ATOM      5  C   UNL     1      29.923  -1.863  54.233  1.00  0.00     0.046 C 
ATOM      6  C   UNL     1      29.366  -0.105  52.475  1.00  0.00     0.045 A 
ATOM      7  C   UNL     1      28.646   1.022  52.058  1.00  0.00     0.040 A 
ENDROOT
BRANCH   1   8
ATOM      8  C   UNL     1      26.942   2.748  52.257  1.00  0.00     0.255 C 
ATOM      9  O   UNL     1      27.197   2.999  51.104  1.00  0.00    -0.269 OA
ATOM     10  N   UNL     1      25.874   3.160  52.957  1.00  0.00    -0.322 N 
ATOM     11  H   UNL     1      25.730   2.734  53.883  1.00  0.00     0.170 HD
BRANCH  10  12
ATOM     12  C   UNL     1      24.945   4.109  52.547  1.00  0.00     0.044 A 
ATOM     13  C   UNL     1      24.092   4.743  53.483  1.00  0.00     0.052 A 
ATOM     14  C   UNL     1      24.749   4.374  51.174  1.00  0.00     0.039 A 
ATOM     15  C   UNL     1      23.161   5.705  53.081  1.00  0.00     0.049 A 
ATOM     16  C   UNL     1      23.816   5.371  50.768  1.00  0.00     0.060 A 
ATOM     17  C   UNL     1      23.015   5.994  51.728  1.00  0.00     0.039 A 
BRANCH  15  18
ATOM     18  N   UNL     1      22.340   6.369  54.005  1.00  0.00    -0.306 N 
ATOM     19  C   UNL     1      22.165   6.112  55.364  1.00  0.00     0.116 A 
ATOM     20  C   UNL     1      21.469   7.351  53.743  1.00  0.00     0.204 A 
ATOM     21  C   UNL     1      21.213   6.948  55.832  1.00  0.00     0.056 A 
ATOM     22  N   UNL     1      20.814   7.737  54.810  1.00  0.00    -0.242 NA
ATOM     23  C   UNL     1      20.690   7.063  57.244  1.00  0.00     0.068 C 
ENDBRANCH  15  18
BRANCH  16  24
ATOM     24  C   UNL     1      23.672   5.674  49.312  1.00  0.00     0.416 C 
ATOM     25  F   UNL     1      23.954   6.946  48.965  1.00  0.00    -0.166 F 
ATOM     26  F   UNL     1      24.553   4.990  48.593  1.00  0.00    -0.166 F 
ATOM     27  F   UNL     1      22.407   5.504  48.876  1.00  0.00    -0.166 F 
ENDBRANCH  16  24
ENDBRANCH  10  12
ENDBRANCH   1   8
BRANCH   6  28
ATOM     28  N   UNL     1      30.454  -0.573  51.726  1.00  0.00    -0.324 N 
ATOM     29  H   UNL     1      30.325  -1.333  51.043  1.00  0.00     0.170 HD
BRANCH  28  30
ATOM     30  C   UNL     1      31.714  -0.002  51.914  1.00  0.00     0.227 A 
ATOM     31  N   UNL     1      32.853  -0.276  51.292  1.00  0.00    -0.221 NA
ATOM     32  N   UNL     1      31.617   0.879  52.943  1.00  0.00    -0.213 NA
ATOM     33  C   UNL     1      33.944   0.399  51.702  1.00  0.00     0.117 A 
ATOM     34  C   UNL     1      32.735   1.502  53.335  1.00  0.00     0.077 A 
ATOM     35  C   UNL     1      33.915   1.270  52.722  1.00  0.00     0.049 A 
BRANCH  34  36
ATOM     36  C   UNL     1      32.570   2.481  54.441  1.00  0.00     0.019 A 
ATOM     37  C   UNL     1      31.465   2.433  55.307  1.00  0.00     0.013 A 
ATOM     38  C   UNL     1      33.520   3.502  54.641  1.00  0.00     0.121 A 
ATOM     39  C   UNL     1      31.351   3.390  56.308  1.00  0.00     0.021 A 
ATOM     40  N   UNL     1      33.410   4.431  55.598  1.00  0.00    -0.264 NA
ATOM     41  C   UNL     1      32.358   4.347  56.428  1.00  0.00     0.111 A 
ENDBRANCH  34  36
ENDBRANCH  28  30
ENDBRANCH   6  28
TORSDOF 7
ENDMDL
MODEL 6
REMARK VINA RESULT:   -12.060      2.019      2.653
REMARK INTER + INTRA:         -15.689
REMARK INTER:                 -14.148
REMARK INTRA:                  -1.541
REMARK CONF_INDEPENDENT:        2.088
REMARK UNBOUND:                -1.541
REMARK SMILES Cc1cn(-c2cc(NC(=O)c3ccc(C)c(Nc4nccc(-c5cccnc5)n4)c3)cc(C(F)(F)F)c2)cn1
REMARK SMILES IDX 11 1 12 2 13 3 14 4 15 5 16 6 30 7 9 8 10 9 8 10 7 12 6 13
REMARK SMILES IDX 31 14 5 15 32 16 37 17 4 18 3 19 38 20 2 21 39 22 1 23 33 24
REMARK SMILES IDX 34 25 35 26 36 27 17 28 18 30 19 31 29 32 20 33 22 34 21 35
REMARK SMILES IDX 23 36 24 37 28 38 25 39 27 40 26 41
REMARK H PARENT 8 11 17 29
ROOT
ATOM      1  C   UNL     1      28.073   1.904  52.832  1.00  0.00     0.042 A 
ATOM      2  C   UNL     1      27.645   0.647  53.285  1.00  0.00     0.014 A 
ATOM      3  C   UNL     1      28.455  -0.148  54.097  1.00  0.00     0.006 A 
ATOM      4  C   UNL     1      29.747   0.236  54.419  1.00  0.00    -0.027 A 
ATOM      5  C   UNL     1      30.622  -0.644  55.300  1.00  0.00     0.046 C 
ATOM      6  C   UNL     1      30.216   1.436  53.886  1.00  0.00     0.045 A 
ATOM      7  C   UNL     1      29.378   2.231  53.094  1.00  0.00     0.040 A 
ENDROOT
BRANCH   1   8
ATOM      8  C   UNL     1      27.337   2.750  51.872  1.00  0.00     0.255 C 
ATOM      9  O   UNL     1      27.900   2.955  50.824  1.00  0.00    -0.269 OA
ATOM     10  N   UNL     1      26.047   2.983  52.156  1.00  0.00    -0.322 N 
ATOM     11  H   UNL     1      25.691   2.612  53.048  1.00  0.00     0.170 HD
BRANCH  10  12
ATOM     12  C   UNL     1      25.148   3.678  51.357  1.00  0.00     0.044 A 
ATOM     13  C   UNL     1      24.644   4.940  51.758  1.00  0.00     0.052 A 
ATOM     14  C   UNL     1      24.624   3.089  50.186  1.00  0.00     0.039 A 
ATOM     15  C   UNL     1      23.747   5.652  50.957  1.00  0.00     0.049 A 
ATOM     16  C   UNL     1      23.728   3.825  49.359  1.00  0.00     0.060 A 
ATOM     17  C   UNL     1      23.279   5.080  49.778  1.00  0.00     0.039 A 
BRANCH  15  18
ATOM     18  N   UNL     1      23.274   6.920  51.325  1.00  0.00    -0.306 N 
ATOM     19  C   UNL     1      22.654   7.314  52.509  1.00  0.00     0.116 A 
ATOM     20  C   UNL     1      23.241   8.016  50.558  1.00  0.00     0.204 A 
ATOM     21  C   UNL     1      22.293   8.610  52.386  1.00  0.00     0.056 A 
ATOM     22  N   UNL     1      22.699   9.040  51.171  1.00  0.00    -0.242 NA
ATOM     23  C   UNL     1      21.609   9.485  53.409  1.00  0.00     0.068 C 
ENDBRANCH  15  18
BRANCH  16  24
ATOM     24  C   UNL     1      23.236   3.201  48.094  1.00  0.00     0.416 C 
ATOM     25  F   UNL     1      22.602   2.021  48.250  1.00  0.00    -0.166 F 
ATOM     26  F   UNL     1      22.293   3.946  47.529  1.00  0.00    -0.166 F 
ATOM     27  F   UNL     1      24.240   2.907  47.243  1.00  0.00    -0.166 F 
ENDBRANCH  16  24
ENDBRANCH  10  12
ENDBRANCH   1   8
BRANCH   6  28
ATOM     28  N   UNL     1      31.453   1.923  54.327  1.00  0.00    -0.324 N 
ATOM     29  H   UNL     1      31.495   2.677  55.026  1.00  0.00     0.170 HD
BRANCH  28  30
ATOM     30  C   UNL     1      32.629   1.376  53.810  1.00  0.00     0.227 A 
ATOM     31  N   UNL     1      33.878   1.540  54.229  1.00  0.00    -0.221 NA
ATOM     32  N   UNL     1      32.301   0.668  52.699  1.00  0.00    -0.213 NA
ATOM     33  C   UNL     1      34.841   0.927  53.516  1.00  0.00     0.117 A 
ATOM     34  C   UNL     1      33.296   0.105  52.004  1.00  0.00     0.077 A 
ATOM     35  C   UNL     1      34.581   0.227  52.400  1.00  0.00     0.049 A 
BRANCH  34  36
ATOM     36  C   UNL     1      32.882  -0.688  50.817  1.00  0.00     0.019 A 
ATOM     37  C   UNL     1      31.528  -0.882  50.498  1.00  0.00     0.013 A 
ATOM     38  C   UNL     1      33.848  -1.282  49.981  1.00  0.00     0.121 A 
ATOM     39  C   UNL     1      31.200  -1.653  49.390  1.00  0.00     0.021 A 
ATOM     40  N   UNL     1      33.537  -2.033  48.917  1.00  0.00    -0.264 NA
ATOM     41  C   UNL     1      32.235  -2.182  48.620  1.00  0.00     0.111 A 
ENDBRANCH  34  36
ENDBRANCH  28  30
ENDBRANCH   6  28
TORSDOF 7
ENDMDL
MODEL 7
REMARK VINA RESULT:   -11.526      4.163     11.219
REMARK INTER + INTRA:         -14.800
REMARK INTER:                 -13.614
REMARK INTRA:                  -1.186
REMARK CONF_INDEPENDENT:        2.088
REMARK UNBOUND:                -1.186
REMARK SMILES Cc1cn(-c2cc(NC(=O)c3ccc(C)c(Nc4nccc(-c5cccnc5)n4)c3)cc(C(F)(F)F)c2)cn1
REMARK SMILES IDX 11 1 12 2 13 3 14 4 15 5 16 6 30 7 9 8 10 9 8 10 7 12 6 13
REMARK SMILES IDX 31 14 5 15 32 16 37 17 4 18 3 19 38 20 2 21 39 22 1 23 33 24
REMARK SMILES IDX 34 25 35 26 36 27 17 28 18 30 19 31 29 32 20 33 22 34 21 35
REMARK SMILES IDX 23 36 24 37 28 38 25 39 27 40 26 41
REMARK H PARENT 8 11 17 29
ROOT
ATOM      1  C   UNL     1      25.865   3.913  52.102  1.00  0.00     0.042 A 
ATOM      2  C   UNL     1      25.280   4.433  50.938  1.00  0.00     0.014 A 
ATOM      3  C   UNL     1      24.172   5.280  50.997  1.00  0.00     0.006 A 
ATOM      4  C   UNL     1      23.555   5.573  52.203  1.00  0.00    -0.027 A 
ATOM      5  C   UNL     1      22.343   6.492  52.252  1.00  0.00     0.046 C 
ATOM      6  C   UNL     1      24.069   4.976  53.353  1.00  0.00     0.045 A 
ATOM      7  C   UNL     1      25.197   4.150  53.275  1.00  0.00     0.040 A 
ENDROOT
BRANCH   1   8
ATOM      8  C   UNL     1      26.952   2.916  52.126  1.00  0.00     0.255 C 
ATOM      9  O   UNL     1      27.629   2.863  51.128  1.00  0.00    -0.269 OA
ATOM     10  N   UNL     1      27.226   2.367  53.319  1.00  0.00    -0.322 N 
ATOM     11  H   UNL     1      26.617   2.632  54.106  1.00  0.00     0.170 HD
BRANCH  10  12
ATOM     12  C   UNL     1      28.255   1.474  53.590  1.00  0.00     0.044 A 
ATOM     13  C   UNL     1      29.566   1.706  53.105  1.00  0.00     0.052 A 
ATOM     14  C   UNL     1      27.992   0.254  54.251  1.00  0.00     0.039 A 
ATOM     15  C   UNL     1      30.610   0.819  53.381  1.00  0.00     0.049 A 
ATOM     16  C   UNL     1      29.061  -0.638  54.550  1.00  0.00     0.060 A 
ATOM     17  C   UNL     1      30.345  -0.355  54.079  1.00  0.00     0.039 A 
BRANCH  15  18
ATOM     18  N   UNL     1      31.920   1.061  52.941  1.00  0.00    -0.306 N 
ATOM     19  C   UNL     1      32.557   0.599  51.791  1.00  0.00     0.116 A 
ATOM     20  C   UNL     1      32.876   1.727  53.599  1.00  0.00     0.204 A 
ATOM     21  C   UNL     1      33.842   1.015  51.824  1.00  0.00     0.056 A 
ATOM     22  N   UNL     1      34.013   1.746  52.948  1.00  0.00    -0.242 NA
ATOM     23  C   UNL     1      34.921   0.781  50.795  1.00  0.00     0.068 C 
ENDBRANCH  15  18
BRANCH  16  24
ATOM     24  C   UNL     1      28.763  -1.893  55.304  1.00  0.00     0.416 C 
ATOM     25  F   UNL     1      27.872  -2.714  54.714  1.00  0.00    -0.166 F 
ATOM     26  F   UNL     1      29.839  -2.667  55.385  1.00  0.00    -0.166 F 
ATOM     27  F   UNL     1      28.212  -1.648  56.511  1.00  0.00    -0.166 F 
ENDBRANCH  16  24
ENDBRANCH  10  12
ENDBRANCH   1   8
BRANCH   6  28
ATOM     28  N   UNL     1      23.568   5.383  54.596  1.00  0.00    -0.324 N 
ATOM     29  H   UNL     1      22.845   4.825  55.073  1.00  0.00     0.170 HD
BRANCH  28  30
ATOM     30  C   UNL     1      24.055   6.552  55.184  1.00  0.00     0.227 A 
ATOM     31  N   UNL     1      24.113   7.777  54.678  1.00  0.00    -0.221 NA
ATOM     32  N   UNL     1      24.565   6.220  56.398  1.00  0.00    -0.213 NA
ATOM     33  C   UNL     1      24.678   8.725  55.450  1.00  0.00     0.117 A 
ATOM     34  C   UNL     1      25.146   7.190  57.115  1.00  0.00     0.077 A 
ATOM     35  C   UNL     1      25.213   8.456  56.651  1.00  0.00     0.049 A 
BRANCH  34  36
ATOM     36  C   UNL     1      25.657   6.783  58.450  1.00  0.00     0.019 A 
ATOM     37  C   UNL     1      24.793   6.589  59.540  1.00  0.00     0.013 A 
ATOM     38  C   UNL     1      27.037   6.595  58.662  1.00  0.00     0.121 A 
ATOM     39  C   UNL     1      25.329   6.234  60.771  1.00  0.00     0.021 A 
ATOM     40  N   UNL     1      27.560   6.261  59.848  1.00  0.00    -0.264 NA
ATOM     41  C   UNL     1      26.709   6.056  60.867  1.00  0.00     0.111 A 
ENDBRANCH  34  36
ENDBRANCH  28  30
ENDBRANCH   6  28
TORSDOF 7
ENDMDL
MODEL 8
REMARK VINA RESULT:   -11.470      3.731     11.722
REMARK INTER + INTRA:         -14.697
REMARK INTER:                 -13.558
REMARK INTRA:                  -1.140
REMARK CONF_INDEPENDENT:        2.088
REMARK UNBOUND:                -1.140
REMARK SMILES Cc1cn(-c2cc(NC(=O)c3ccc(C)c(Nc4nccc(-c5cccnc5)n4)c3)cc(C(F)(F)F)c2)cn1
REMARK SMILES IDX 11 1 12 2 13 3 14 4 15 5 16 6 30 7 9 8 10 9 8 10 7 12 6 13
REMARK SMILES IDX 31 14 5 15 32 16 37 17 4 18 3 19 38 20 2 21 39 22 1 23 33 24
REMARK SMILES IDX 34 25 35 26 36 27 17 28 18 30 19 31 29 32 20 33 22 34 21 35
REMARK SMILES IDX 23 36 24 37 28 38 25 39 27 40 26 41
REMARK H PARENT 8 11 17 29
ROOT
ATOM      1  C   UNL     1      25.956   3.687  51.687  1.00  0.00     0.042 A 
ATOM      2  C   UNL     1      25.301   4.025  50.493  1.00  0.00     0.014 A 
ATOM      3  C   UNL     1      24.142   4.801  50.494  1.00  0.00     0.006 A 
ATOM      4  C   UNL     1      23.545   5.199  51.679  1.00  0.00    -0.027 A 
ATOM      5  C   UNL     1      22.276   6.040  51.665  1.00  0.00     0.046 C 
ATOM      6  C   UNL     1      24.133   4.779  52.871  1.00  0.00     0.045 A 
ATOM      7  C   UNL     1      25.310   4.021  52.849  1.00  0.00     0.040 A 
ENDROOT
BRANCH   1   8
ATOM      8  C   UNL     1      27.108   2.770  51.787  1.00  0.00     0.255 C 
ATOM      9  O   UNL     1      27.911   2.847  50.890  1.00  0.00    -0.269 OA
ATOM     10  N   UNL     1      27.267   2.145  52.964  1.00  0.00    -0.322 N 
ATOM     11  H   UNL     1      26.541   2.301  53.677  1.00  0.00     0.170 HD
BRANCH  10  12
ATOM     12  C   UNL     1      28.320   1.307  53.307  1.00  0.00     0.044 A 
ATOM     13  C   UNL     1      29.633   1.561  52.840  1.00  0.00     0.052 A 
ATOM     14  C   UNL     1      28.084   0.117  54.030  1.00  0.00     0.039 A 
ATOM     15  C   UNL     1      30.701   0.730  53.189  1.00  0.00     0.049 A 
ATOM     16  C   UNL     1      29.177  -0.717  54.402  1.00  0.00     0.060 A 
ATOM     17  C   UNL     1      30.461  -0.413  53.945  1.00  0.00     0.039 A 
BRANCH  15  18
ATOM     18  N   UNL     1      32.012   0.996  52.766  1.00  0.00    -0.306 N 
ATOM     19  C   UNL     1      32.675   0.541  51.628  1.00  0.00     0.116 A 
ATOM     20  C   UNL     1      32.945   1.685  53.435  1.00  0.00     0.204 A 
ATOM     21  C   UNL     1      33.951   0.983  51.677  1.00  0.00     0.056 A 
ATOM     22  N   UNL     1      34.091   1.724  52.799  1.00  0.00    -0.242 NA
ATOM     23  C   UNL     1      35.048   0.766  50.664  1.00  0.00     0.068 C 
ENDBRANCH  15  18
BRANCH  16  24
ATOM     24  C   UNL     1      28.906  -1.939  55.218  1.00  0.00     0.416 C 
ATOM     25  F   UNL     1      28.096  -2.845  54.636  1.00  0.00    -0.166 F 
ATOM     26  F   UNL     1      30.016  -2.643  55.406  1.00  0.00    -0.166 F 
ATOM     27  F   UNL     1      28.275  -1.653  56.376  1.00  0.00    -0.166 F 
ENDBRANCH  16  24
ENDBRANCH  10  12
ENDBRANCH   1   8
BRANCH   6  28
ATOM     28  N   UNL     1      23.644   5.302  54.076  1.00  0.00    -0.324 N 
ATOM     29  H   UNL     1      22.652   5.185  54.328  1.00  0.00     0.170 HD
BRANCH  28  30
ATOM     30  C   UNL     1      24.512   5.982  54.931  1.00  0.00     0.227 A 
ATOM     31  N   UNL     1      25.816   6.189  54.802  1.00  0.00    -0.221 NA
ATOM     32  N   UNL     1      23.800   6.363  56.023  1.00  0.00    -0.213 NA
ATOM     33  C   UNL     1      26.428   6.846  55.806  1.00  0.00     0.117 A 
ATOM     34  C   UNL     1      24.457   6.984  57.009  1.00  0.00     0.077 A 
ATOM     35  C   UNL     1      25.781   7.233  56.917  1.00  0.00     0.049 A 
BRANCH  34  36
ATOM     36  C   UNL     1      23.627   7.411  58.166  1.00  0.00     0.019 A 
ATOM     37  C   UNL     1      22.271   7.060  58.267  1.00  0.00     0.013 A 
ATOM     38  C   UNL     1      24.182   8.200  59.192  1.00  0.00     0.121 A 
ATOM     39  C   UNL     1      21.538   7.509  59.358  1.00  0.00     0.021 A 
ATOM     40  N   UNL     1      23.478   8.642  60.242  1.00  0.00    -0.264 NA
ATOM     41  C   UNL     1      22.191   8.270  60.327  1.00  0.00     0.111 A 
ENDBRANCH  34  36
ENDBRANCH  28  30
ENDBRANCH   6  28
TORSDOF 7
ENDMDL
MODEL 9
REMARK VINA RESULT:   -11.375      2.027      3.073
REMARK INTER + INTRA:         -14.704
REMARK INTER:                 -13.463
REMARK INTRA:                  -1.241
REMARK CONF_INDEPENDENT:        2.088
REMARK UNBOUND:                -1.241
REMARK SMILES Cc1cn(-c2cc(NC(=O)c3ccc(C)c(Nc4nccc(-c5cccnc5)n4)c3)cc(C(F)(F)F)c2)cn1
REMARK SMILES IDX 11 1 12 2 13 3 14 4 15 5 16 6 30 7 9 8 10 9 8 10 7 12 6 13
REMARK SMILES IDX 31 14 5 15 32 16 37 17 4 18 3 19 38 20 2 21 39 22 1 23 33 24
REMARK SMILES IDX 34 25 35 26 36 27 17 28 18 30 19 31 29 32 20 33 22 34 21 35
REMARK SMILES IDX 23 36 24 37 28 38 25 39 27 40 26 41
REMARK H PARENT 8 11 17 29
ROOT
ATOM      1  C   UNL     1      26.971   2.417  52.373  1.00  0.00     0.042 A 
ATOM      2  C   UNL     1      27.149   1.053  52.098  1.00  0.00     0.014 A 
ATOM      3  C   UNL     1      27.933   0.242  52.920  1.00  0.00     0.006 A 
ATOM      4  C   UNL     1      28.634   0.770  53.992  1.00  0.00    -0.027 A 
ATOM      5  C   UNL     1      29.492  -0.126  54.875  1.00  0.00     0.046 C 
ATOM      6  C   UNL     1      28.544   2.144  54.210  1.00  0.00     0.045 A 
ATOM      7  C   UNL     1      27.732   2.936  53.389  1.00  0.00     0.040 A 
ENDROOT
BRANCH   1   8
ATOM      8  C   UNL     1      26.267   3.370  51.493  1.00  0.00     0.255 C 
ATOM      9  O   UNL     1      26.461   3.224  50.311  1.00  0.00    -0.269 OA
ATOM     10  N   UNL     1      25.312   4.114  52.071  1.00  0.00    -0.322 N 
ATOM     11  H   UNL     1      25.190   4.011  53.088  1.00  0.00     0.170 HD
BRANCH  10  12
ATOM     12  C   UNL     1      24.471   5.010  51.422  1.00  0.00     0.044 A 
ATOM     13  C   UNL     1      23.817   6.043  52.138  1.00  0.00     0.052 A 
ATOM     14  C   UNL     1      24.156   4.838  50.056  1.00  0.00     0.039 A 
ATOM     15  C   UNL     1      22.978   6.955  51.492  1.00  0.00     0.049 A 
ATOM     16  C   UNL     1      23.318   5.782  49.396  1.00  0.00     0.060 A 
ATOM     17  C   UNL     1      22.717   6.803  50.134  1.00  0.00     0.039 A 
BRANCH  15  18
ATOM     18  N   UNL     1      22.359   8.006  52.185  1.00  0.00    -0.306 N 
ATOM     19  C   UNL     1      21.472   7.946  53.258  1.00  0.00     0.116 A 
ATOM     20  C   UNL     1      22.426   9.310  51.890  1.00  0.00     0.204 A 
ATOM     21  C   UNL     1      21.067   9.203  53.543  1.00  0.00     0.056 A 
ATOM     22  N   UNL     1      21.701  10.045  52.697  1.00  0.00    -0.242 NA
ATOM     23  C   UNL     1      20.124   9.650  54.633  1.00  0.00     0.068 C 
ENDBRANCH  15  18
BRANCH  16  24
ATOM     24  C   UNL     1      23.049   5.610  47.936  1.00  0.00     0.416 C 
ATOM     25  F   UNL     1      24.140   5.661  47.146  1.00  0.00    -0.166 F 
ATOM     26  F   UNL     1      22.580   4.395  47.677  1.00  0.00    -0.166 F 
ATOM     27  F   UNL     1      22.258   6.584  47.442  1.00  0.00    -0.166 F 
ENDBRANCH  16  24
ENDBRANCH  10  12
ENDBRANCH   1   8
BRANCH   6  28
ATOM     28  N   UNL     1      29.109   2.672  55.377  1.00  0.00    -0.324 N 
ATOM     29  H   UNL     1      28.522   2.844  56.206  1.00  0.00     0.170 HD
BRANCH  28  30
ATOM     30  C   UNL     1      30.474   2.964  55.409  1.00  0.00     0.227 A 
ATOM     31  N   UNL     1      31.117   3.861  56.147  1.00  0.00    -0.221 NA
ATOM     32  N   UNL     1      31.080   2.204  54.460  1.00  0.00    -0.213 NA
ATOM     33  C   UNL     1      32.444   3.970  55.947  1.00  0.00     0.117 A 
ATOM     34  C   UNL     1      32.394   2.371  54.276  1.00  0.00     0.077 A 
ATOM     35  C   UNL     1      33.096   3.258  55.014  1.00  0.00     0.049 A 
BRANCH  34  36
ATOM     36  C   UNL     1      33.016   1.492  53.251  1.00  0.00     0.019 A 
ATOM     37  C   UNL     1      33.990   1.973  52.362  1.00  0.00     0.013 A 
ATOM     38  C   UNL     1      32.628   0.143  53.136  1.00  0.00     0.121 A 
ATOM     39  C   UNL     1      34.518   1.112  51.408  1.00  0.00     0.021 A 
ATOM     40  N   UNL     1      33.127  -0.690  52.214  1.00  0.00    -0.264 NA
ATOM     41  C   UNL     1      34.076  -0.210  51.393  1.00  0.00     0.111 A 
ENDBRANCH  34  36
ENDBRANCH  28  30
ENDBRANCH   6  28
TORSDOF 7
ENDMDL
MODEL 10
REMARK VINA RESULT:   -11.181      1.693      2.545
REMARK INTER + INTRA:         -14.366
REMARK INTER:                 -13.269
REMARK INTRA:                  -1.097
REMARK CONF_INDEPENDENT:        2.088
REMARK UNBOUND:                -1.097
REMARK SMILES Cc1cn(-c2cc(NC(=O)c3ccc(C)c(Nc4nccc(-c5cccnc5)n4)c3)cc(C(F)(F)F)c2)cn1
REMARK SMILES IDX 11 1 12 2 13 3 14 4 15 5 16 6 30 7 9 8 10 9 8 10 7 12 6 13
REMARK SMILES IDX 31 14 5 15 32 16 37 17 4 18 3 19 38 20 2 21 39 22 1 23 33 24
REMARK SMILES IDX 34 25 35 26 36 27 17 28 18 30 19 31 29 32 20 33 22 34 21 35
REMARK SMILES IDX 23 36 24 37 28 38 25 39 27 40 26 41
REMARK H PARENT 8 11 17 29
ROOT
ATOM      1  C   UNL     1      27.050   2.323  52.450  1.00  0.00     0.042 A 
ATOM      2  C   UNL     1      27.222   1.193  51.636  1.00  0.00     0.014 A 
ATOM      3  C   UNL     1      28.180   0.223  51.932  1.00  0.00     0.006 A 
ATOM      4  C   UNL     1      29.056   0.379  52.994  1.00  0.00    -0.027 A 
ATOM      5  C   UNL     1      30.102  -0.684  53.300  1.00  0.00     0.046 C 
ATOM      6  C   UNL     1      28.959   1.549  53.745  1.00  0.00     0.045 A 
ATOM      7  C   UNL     1      27.974   2.499  53.447  1.00  0.00     0.040 A 
ENDROOT
BRANCH   1   8
ATOM      8  C   UNL     1      26.154   3.455  52.144  1.00  0.00     0.255 C 
ATOM      9  O   UNL     1      25.968   3.666  50.970  1.00  0.00    -0.269 OA
ATOM     10  N   UNL     1      25.457   3.954  53.176  1.00  0.00    -0.322 N 
ATOM     11  H   UNL     1      25.650   3.557  54.106  1.00  0.00     0.170 HD
BRANCH  10  12
ATOM     12  C   UNL     1      24.500   4.958  53.105  1.00  0.00     0.044 A 
ATOM     13  C   UNL     1      23.761   5.341  54.252  1.00  0.00     0.052 A 
ATOM     14  C   UNL     1      24.156   5.536  51.863  1.00  0.00     0.039 A 
ATOM     15  C   UNL     1      22.803   6.357  54.192  1.00  0.00     0.049 A 
ATOM     16  C   UNL     1      23.196   6.586  51.808  1.00  0.00     0.060 A 
ATOM     17  C   UNL     1      22.512   6.954  52.969  1.00  0.00     0.039 A 
BRANCH  15  18
ATOM     18  N   UNL     1      22.096   6.772  55.331  1.00  0.00    -0.306 N 
ATOM     19  C   UNL     1      22.575   7.027  56.614  1.00  0.00     0.116 A 
ATOM     20  C   UNL     1      20.771   6.924  55.440  1.00  0.00     0.204 A 
ATOM     21  C   UNL     1      21.522   7.318  57.408  1.00  0.00     0.056 A 
ATOM     22  N   UNL     1      20.405   7.280  56.647  1.00  0.00    -0.242 NA
ATOM     23  C   UNL     1      21.535   7.682  58.873  1.00  0.00     0.068 C 
ENDBRANCH  15  18
BRANCH  16  24
ATOM     24  C   UNL     1      22.896   7.221  50.490  1.00  0.00     0.416 C 
ATOM     25  F   UNL     1      23.893   7.157  49.586  1.00  0.00    -0.166 F 
ATOM     26  F   UNL     1      21.916   6.580  49.863  1.00  0.00    -0.166 F 
ATOM     27  F   UNL     1      22.658   8.545  50.600  1.00  0.00    -0.166 F 
ENDBRANCH  16  24
ENDBRANCH  10  12
ENDBRANCH   1   8
BRANCH   6  28
ATOM     28  N   UNL     1      29.721   1.655  54.916  1.00  0.00    -0.324 N 
ATOM     29  H   UNL     1      29.326   1.361  55.820  1.00  0.00     0.170 HD
BRANCH  28  30
ATOM     30  C   UNL     1      31.020   2.162  54.847  1.00  0.00     0.227 A 
ATOM     31  N   UNL     1      31.562   3.158  55.537  1.00  0.00    -0.221 NA
ATOM     32  N   UNL     1      31.669   1.499  53.856  1.00  0.00    -0.213 NA
ATOM     33  C   UNL     1      32.836   3.476  55.240  1.00  0.00     0.117 A 
ATOM     34  C   UNL     1      32.923   1.872  53.576  1.00  0.00     0.077 A 
ATOM     35  C   UNL     1      33.525   2.868  54.262  1.00  0.00     0.049 A 
BRANCH  34  36
ATOM     36  C   UNL     1      33.602   1.093  52.508  1.00  0.00     0.019 A 
ATOM     37  C   UNL     1      34.359   1.721  51.507  1.00  0.00     0.013 A 
ATOM     38  C   UNL     1      33.489  -0.311  52.465  1.00  0.00     0.121 A 
ATOM     39  C   UNL     1      34.950   0.944  50.519  1.00  0.00     0.021 A 
ATOM     40  N   UNL     1      34.050  -1.065  51.511  1.00  0.00    -0.264 NA
ATOM     41  C   UNL     1      34.789  -0.440  50.581  1.00  0.00     0.111 A 
ENDBRANCH  34  36
ENDBRANCH  28  30
ENDBRANCH   6  28
TORSDOF 7
ENDMDL
MODEL 11
REMARK VINA RESULT:   -11.018      3.922     11.674
REMARK INTER + INTRA:         -14.157
REMARK INTER:                 -13.106
REMARK INTRA:                  -1.050
REMARK CONF_INDEPENDENT:        2.088
REMARK UNBOUND:                -1.050
REMARK SMILES Cc1cn(-c2cc(NC(=O)c3ccc(C)c(Nc4nccc(-c5cccnc5)n4)c3)cc(C(F)(F)F)c2)cn1
REMARK SMILES IDX 11 1 12 2 13 3 14 4 15 5 16 6 30 7 9 8 10 9 8 10 7 12 6 13
REMARK SMILES IDX 31 14 5 15 32 16 37 17 4 18 3 19 38 20 2 21 39 22 1 23 33 24
REMARK SMILES IDX 34 25 35 26 36 27 17 28 18 30 19 31 29 32 20 33 22 34 21 35
REMARK SMILES IDX 23 36 24 37 28 38 25 39 27 40 26 41
REMARK H PARENT 8 11 17 29
ROOT
ATOM      1  C   UNL     1      25.796   3.484  51.875  1.00  0.00     0.042 A 
ATOM      2  C   UNL     1      24.915   3.215  50.817  1.00  0.00     0.014 A 
ATOM      3  C   UNL     1      23.578   3.612  50.866  1.00  0.00     0.006 A 
ATOM      4  C   UNL     1      23.047   4.213  51.996  1.00  0.00    -0.027 A 
ATOM      5  C   UNL     1      21.585   4.633  52.038  1.00  0.00     0.046 C 
ATOM      6  C   UNL     1      23.892   4.389  53.090  1.00  0.00     0.045 A 
ATOM      7  C   UNL     1      25.237   4.007  53.012  1.00  0.00     0.040 A 
ENDROOT
BRANCH   1   8
ATOM      8  C   UNL     1      27.185   2.993  51.962  1.00  0.00     0.255 C 
ATOM      9  O   UNL     1      27.759   2.872  50.907  1.00  0.00    -0.269 OA
ATOM     10  N   UNL     1      27.732   2.977  53.187  1.00  0.00    -0.322 N 
ATOM     11  H   UNL     1      27.123   3.244  53.974  1.00  0.00     0.170 HD
BRANCH  10  12
ATOM     12  C   UNL     1      29.043   2.635  53.491  1.00  0.00     0.044 A 
ATOM     13  C   UNL     1      29.749   1.690  52.705  1.00  0.00     0.052 A 
ATOM     14  C   UNL     1      29.662   3.129  54.660  1.00  0.00     0.039 A 
ATOM     15  C   UNL     1      31.072   1.347  52.997  1.00  0.00     0.049 A 
ATOM     16  C   UNL     1      31.017   2.794  54.943  1.00  0.00     0.060 A 
ATOM     17  C   UNL     1      31.686   1.882  54.124  1.00  0.00     0.039 A 
BRANCH  15  18
ATOM     18  N   UNL     1      31.793   0.445  52.200  1.00  0.00    -0.306 N 
ATOM     19  C   UNL     1      31.332  -0.382  51.177  1.00  0.00     0.116 A 
ATOM     20  C   UNL     1      33.085   0.120  52.326  1.00  0.00     0.204 A 
ATOM     21  C   UNL     1      32.365  -1.141  50.750  1.00  0.00     0.056 A 
ATOM     22  N   UNL     1      33.460  -0.789  51.459  1.00  0.00    -0.242 NA
ATOM     23  C   UNL     1      32.366  -2.172  49.648  1.00  0.00     0.068 C 
ENDBRANCH  15  18
BRANCH  16  24
ATOM     24  C   UNL     1      31.666   3.379  56.156  1.00  0.00     0.416 C 
ATOM     25  F   UNL     1      31.030   4.444  56.685  1.00  0.00    -0.166 F 
ATOM     26  F   UNL     1      31.650   2.519  57.167  1.00  0.00    -0.166 F 
ATOM     27  F   UNL     1      32.904   3.849  55.898  1.00  0.00    -0.166 F 
ENDBRANCH  16  24
ENDBRANCH  10  12
ENDBRANCH   1   8
BRANCH   6  28
ATOM     28  N   UNL     1      23.425   5.137  54.179  1.00  0.00    -0.324 N 
ATOM     29  H   UNL     1      22.419   5.166  54.396  1.00  0.00     0.170 HD
BRANCH  28  30
ATOM     30  C   UNL     1      24.335   5.844  54.967  1.00  0.00     0.227 A 
ATOM     31  N   UNL     1      25.635   6.030  54.774  1.00  0.00    -0.221 NA
ATOM     32  N   UNL     1      23.674   6.277  56.071  1.00  0.00    -0.213 NA
ATOM     33  C   UNL     1      26.295   6.722  55.722  1.00  0.00     0.117 A 
ATOM     34  C   UNL     1      24.379   6.932  57.001  1.00  0.00     0.077 A 
ATOM     35  C   UNL     1      25.700   7.163  56.842  1.00  0.00     0.049 A 
BRANCH  34  36
ATOM     36  C   UNL     1      23.603   7.416  58.173  1.00  0.00     0.019 A 
ATOM     37  C   UNL     1      24.173   8.272  59.130  1.00  0.00     0.013 A 
ATOM     38  C   UNL     1      22.267   7.012  58.362  1.00  0.00     0.121 A 
ATOM     39  C   UNL     1      23.408   8.672  60.218  1.00  0.00     0.021 A 
ATOM     40  N   UNL     1      21.527   7.388  59.413  1.00  0.00    -0.264 NA
ATOM     41  C   UNL     1      22.089   8.227  60.300  1.00  0.00     0.111 A 
ENDBRANCH  34  36
ENDBRANCH  28  30
ENDBRANCH   6  28
TORSDOF 7
ENDMDL
MODEL 12
REMARK VINA RESULT:   -11.018      3.592     12.363
REMARK INTER + INTRA:         -14.344
REMARK INTER:                 -13.106
REMARK INTRA:                  -1.238
REMARK CONF_INDEPENDENT:        2.088
REMARK UNBOUND:                -1.238
REMARK SMILES Cc1cn(-c2cc(NC(=O)c3ccc(C)c(Nc4nccc(-c5cccnc5)n4)c3)cc(C(F)(F)F)c2)cn1
REMARK SMILES IDX 11 1 12 2 13 3 14 4 15 5 16 6 30 7 9 8 10 9 8 10 7 12 6 13
REMARK SMILES IDX 31 14 5 15 32 16 37 17 4 18 3 19 38 20 2 21 39 22 1 23 33 24
REMARK SMILES IDX 34 25 35 26 36 27 17 28 18 30 19 31 29 32 20 33 22 34 21 35
REMARK SMILES IDX 23 36 24 37 28 38 25 39 27 40 26 41
REMARK H PARENT 8 11 17 29
ROOT
ATOM      1  C   UNL     1      25.720   3.766  51.999  1.00  0.00     0.042 A 
ATOM      2  C   UNL     1      25.302   4.465  50.857  1.00  0.00     0.014 A 
ATOM      3  C   UNL     1      24.142   5.240  50.863  1.00  0.00     0.006 A 
ATOM      4  C   UNL     1      23.312   5.283  51.973  1.00  0.00    -0.027 A 
ATOM      5  C   UNL     1      22.045   6.127  51.963  1.00  0.00     0.046 C 
ATOM      6  C   UNL     1      23.668   4.508  53.075  1.00  0.00     0.045 A 
ATOM      7  C   UNL     1      24.850   3.756  53.058  1.00  0.00     0.040 A 
ENDROOT
BRANCH   1   8
ATOM      8  C   UNL     1      26.858   2.826  52.043  1.00  0.00     0.255 C 
ATOM      9  O   UNL     1      27.585   2.847  51.080  1.00  0.00    -0.269 OA
ATOM     10  N   UNL     1      27.102   2.248  53.229  1.00  0.00    -0.322 N 
ATOM     11  H   UNL     1      26.442   2.451  53.993  1.00  0.00     0.170 HD
BRANCH  10  12
ATOM     12  C   UNL     1      28.163   1.400  53.520  1.00  0.00     0.044 A 
ATOM     13  C   UNL     1      29.466   1.672  53.034  1.00  0.00     0.052 A 
ATOM     14  C   UNL     1      27.944   0.186  54.206  1.00  0.00     0.039 A 
ATOM     15  C   UNL     1      30.542   0.831  53.330  1.00  0.00     0.049 A 
ATOM     16  C   UNL     1      29.045  -0.659  54.526  1.00  0.00     0.060 A 
ATOM     17  C   UNL     1      30.319  -0.337  54.052  1.00  0.00     0.039 A 
BRANCH  15  18
ATOM     18  N   UNL     1      31.843   1.114  52.888  1.00  0.00    -0.306 N 
ATOM     19  C   UNL     1      32.518   0.614  51.776  1.00  0.00     0.116 A 
ATOM     20  C   UNL     1      32.754   1.870  53.512  1.00  0.00     0.204 A 
ATOM     21  C   UNL     1      33.779   1.099  51.795  1.00  0.00     0.056 A 
ATOM     22  N   UNL     1      33.897   1.908  52.871  1.00  0.00    -0.242 NA
ATOM     23  C   UNL     1      34.882   0.858  50.793  1.00  0.00     0.068 C 
ENDBRANCH  15  18
BRANCH  16  24
ATOM     24  C   UNL     1      28.793  -1.909  55.305  1.00  0.00     0.416 C 
ATOM     25  F   UNL     1      27.900  -2.754  54.753  1.00  0.00    -0.166 F 
ATOM     26  F   UNL     1      29.885  -2.663  55.363  1.00  0.00    -0.166 F 
ATOM     27  F   UNL     1      28.275  -1.657  56.525  1.00  0.00    -0.166 F 
ENDBRANCH  16  24
ENDBRANCH  10  12
ENDBRANCH   1   8
BRANCH   6  28
ATOM     28  N   UNL     1      22.937   4.660  54.261  1.00  0.00    -0.324 N 
ATOM     29  H   UNL     1      22.312   3.909  54.585  1.00  0.00     0.170 HD
BRANCH  28  30
ATOM     30  C   UNL     1      23.064   5.838  54.999  1.00  0.00     0.227 A 
ATOM     31  N   UNL     1      24.080   6.246  55.749  1.00  0.00    -0.221 NA
ATOM     32  N   UNL     1      21.893   6.517  54.896  1.00  0.00    -0.213 NA
ATOM     33  C   UNL     1      23.924   7.416  56.396  1.00  0.00     0.117 A 
ATOM     34  C   UNL     1      21.773   7.659  55.583  1.00  0.00     0.077 A 
ATOM     35  C   UNL     1      22.785   8.124  56.345  1.00  0.00     0.049 A 
BRANCH  34  36
ATOM     36  C   UNL     1      20.486   8.381  55.409  1.00  0.00     0.019 A 
ATOM     37  C   UNL     1      19.690   8.202  54.266  1.00  0.00     0.013 A 
ATOM     38  C   UNL     1      20.035   9.286  56.390  1.00  0.00     0.121 A 
ATOM     39  C   UNL     1      18.509   8.923  54.145  1.00  0.00     0.021 A 
ATOM     40  N   UNL     1      18.901   9.990  56.276  1.00  0.00    -0.264 NA
ATOM     41  C   UNL     1      18.147   9.779  55.184  1.00  0.00     0.111 A 
ENDBRANCH  34  36
ENDBRANCH  28  30
ENDBRANCH   6  28
TORSDOF 7
ENDMDL
MODEL 13
REMARK VINA RESULT:   -10.949      4.612      7.545
REMARK INTER + INTRA:         -13.885
REMARK INTER:                 -13.037
REMARK INTRA:                  -0.849
REMARK CONF_INDEPENDENT:        2.088
REMARK UNBOUND:                -0.849
REMARK SMILES Cc1cn(-c2cc(NC(=O)c3ccc(C)c(Nc4nccc(-c5cccnc5)n4)c3)cc(C(F)(F)F)c2)cn1
REMARK SMILES IDX 11 1 12 2 13 3 14 4 15 5 16 6 30 7 9 8 10 9 8 10 7 12 6 13
REMARK SMILES IDX 31 14 5 15 32 16 37 17 4 18 3 19 38 20 2 21 39 22 1 23 33 24
REMARK SMILES IDX 34 25 35 26 36 27 17 28 18 30 19 31 29 32 20 33 22 34 21 35
REMARK SMILES IDX 23 36 24 37 28 38 25 39 27 40 26 41
REMARK H PARENT 8 11 17 29
ROOT
ATOM      1  C   UNL     1      23.010   5.931  52.423  1.00  0.00     0.042 A 
ATOM      2  C   UNL     1      22.698   5.540  51.112  1.00  0.00     0.014 A 
ATOM      3  C   UNL     1      23.285   4.416  50.529  1.00  0.00     0.006 A 
ATOM      4  C   UNL     1      24.262   3.691  51.192  1.00  0.00    -0.027 A 
ATOM      5  C   UNL     1      24.900   2.472  50.541  1.00  0.00     0.046 C 
ATOM      6  C   UNL     1      24.652   4.135  52.454  1.00  0.00     0.045 A 
ATOM      7  C   UNL     1      24.032   5.251  53.032  1.00  0.00     0.040 A 
ENDROOT
BRANCH   1   8
ATOM      8  C   UNL     1      22.535   7.170  53.070  1.00  0.00     0.255 C 
ATOM      9  O   UNL     1      23.186   8.159  52.836  1.00  0.00    -0.269 OA
ATOM     10  N   UNL     1      21.316   7.117  53.626  1.00  0.00    -0.322 N 
ATOM     11  H   UNL     1      20.838   6.205  53.618  1.00  0.00     0.170 HD
BRANCH  10  12
ATOM     12  C   UNL     1      20.640   8.180  54.213  1.00  0.00     0.044 A 
ATOM     13  C   UNL     1      19.616   8.865  53.513  1.00  0.00     0.052 A 
ATOM     14  C   UNL     1      21.040   8.678  55.472  1.00  0.00     0.039 A 
ATOM     15  C   UNL     1      18.923   9.929  54.098  1.00  0.00     0.049 A 
ATOM     16  C   UNL     1      20.318   9.747  56.075  1.00  0.00     0.060 A 
ATOM     17  C   UNL     1      19.295  10.375  55.362  1.00  0.00     0.039 A 
BRANCH  15  18
ATOM     18  N   UNL     1      17.880  10.587  53.429  1.00  0.00    -0.306 N 
ATOM     19  C   UNL     1      16.699  11.112  53.952  1.00  0.00     0.116 A 
ATOM     20  C   UNL     1      17.762  10.766  52.109  1.00  0.00     0.204 A 
ATOM     21  C   UNL     1      15.953  11.575  52.925  1.00  0.00     0.056 A 
ATOM     22  N   UNL     1      16.650  11.379  51.784  1.00  0.00    -0.242 NA
ATOM     23  C   UNL     1      14.604  12.250  52.988  1.00  0.00     0.068 C 
ENDBRANCH  15  18
BRANCH  16  24
ATOM     24  C   UNL     1      20.725  10.215  57.435  1.00  0.00     0.416 C 
ATOM     25  F   UNL     1      19.911  11.136  57.988  1.00  0.00    -0.166 F 
ATOM     26  F   UNL     1      20.661   9.226  58.319  1.00  0.00    -0.166 F 
ATOM     27  F   UNL     1      21.929  10.824  57.429  1.00  0.00    -0.166 F 
ENDBRANCH  16  24
ENDBRANCH  10  12
ENDBRANCH   1   8
BRANCH   6  28
ATOM     28  N   UNL     1      25.516   3.330  53.208  1.00  0.00    -0.324 N 
ATOM     29  H   UNL     1      25.254   3.036  54.159  1.00  0.00     0.170 HD
BRANCH  28  30
ATOM     30  C   UNL     1      26.734   2.927  52.657  1.00  0.00     0.227 A 
ATOM     31  N   UNL     1      27.413   3.467  51.653  1.00  0.00    -0.221 NA
ATOM     32  N   UNL     1      27.113   1.785  53.287  1.00  0.00    -0.213 NA
ATOM     33  C   UNL     1      28.552   2.847  51.289  1.00  0.00     0.117 A 
ATOM     34  C   UNL     1      28.235   1.187  52.869  1.00  0.00     0.077 A 
ATOM     35  C   UNL     1      28.970   1.708  51.863  1.00  0.00     0.049 A 
BRANCH  34  36
ATOM     36  C   UNL     1      28.625  -0.039  53.613  1.00  0.00     0.019 A 
ATOM     37  C   UNL     1      27.884  -0.498  54.713  1.00  0.00     0.013 A 
ATOM     38  C   UNL     1      29.768  -0.771  53.237  1.00  0.00     0.121 A 
ATOM     39  C   UNL     1      28.310  -1.637  55.386  1.00  0.00     0.021 A 
ATOM     40  N   UNL     1      30.188  -1.864  53.886  1.00  0.00    -0.264 NA
ATOM     41  C   UNL     1      29.447  -2.295  54.919  1.00  0.00     0.111 A 
ENDBRANCH  34  36
ENDBRANCH  28  30
ENDBRANCH   6  28
TORSDOF 7
ENDMDL
MODEL 14
REMARK VINA RESULT:   -10.944      4.027     11.320
REMARK INTER + INTRA:         -14.202
REMARK INTER:                 -13.032
REMARK INTRA:                  -1.169
REMARK CONF_INDEPENDENT:        2.088
REMARK UNBOUND:                -1.169
REMARK SMILES Cc1cn(-c2cc(NC(=O)c3ccc(C)c(Nc4nccc(-c5cccnc5)n4)c3)cc(C(F)(F)F)c2)cn1
REMARK SMILES IDX 11 1 12 2 13 3 14 4 15 5 16 6 30 7 9 8 10 9 8 10 7 12 6 13
REMARK SMILES IDX 31 14 5 15 32 16 37 17 4 18 3 19 38 20 2 21 39 22 1 23 33 24
REMARK SMILES IDX 34 25 35 26 36 27 17 28 18 30 19 31 29 32 20 33 22 34 21 35
REMARK SMILES IDX 23 36 24 37 28 38 25 39 27 40 26 41
REMARK H PARENT 8 11 17 29
ROOT
ATOM      1  C   UNL     1      25.495   3.798  51.934  1.00  0.00     0.042 A 
ATOM      2  C   UNL     1      24.366   3.237  51.318  1.00  0.00     0.014 A 
ATOM      3  C   UNL     1      23.110   3.838  51.415  1.00  0.00     0.006 A 
ATOM      4  C   UNL     1      22.913   4.967  52.194  1.00  0.00    -0.027 A 
ATOM      5  C   UNL     1      21.536   5.608  52.298  1.00  0.00     0.046 C 
ATOM      6  C   UNL     1      24.009   5.470  52.893  1.00  0.00     0.045 A 
ATOM      7  C   UNL     1      25.267   4.867  52.762  1.00  0.00     0.040 A 
ENDROOT
BRANCH   1   8
ATOM      8  C   UNL     1      26.827   3.166  51.989  1.00  0.00     0.255 C 
ATOM      9  O   UNL     1      27.304   2.868  50.921  1.00  0.00    -0.269 OA
ATOM     10  N   UNL     1      27.461   3.222  53.170  1.00  0.00    -0.322 N 
ATOM     11  H   UNL     1      26.945   3.638  53.958  1.00  0.00     0.170 HD
BRANCH  10  12
ATOM     12  C   UNL     1      28.749   2.768  53.428  1.00  0.00     0.044 A 
ATOM     13  C   UNL     1      29.335   1.754  52.632  1.00  0.00     0.052 A 
ATOM     14  C   UNL     1      29.456   3.223  54.562  1.00  0.00     0.039 A 
ATOM     15  C   UNL     1      30.634   1.299  52.877  1.00  0.00     0.049 A 
ATOM     16  C   UNL     1      30.787   2.774  54.798  1.00  0.00     0.060 A 
ATOM     17  C   UNL     1      31.339   1.794  53.969  1.00  0.00     0.039 A 
BRANCH  15  18
ATOM     18  N   UNL     1      31.239   0.325  52.069  1.00  0.00    -0.306 N 
ATOM     19  C   UNL     1      32.595   0.090  51.847  1.00  0.00     0.116 A 
ATOM     20  C   UNL     1      30.620  -0.540  51.256  1.00  0.00     0.204 A 
ATOM     21  C   UNL     1      32.708  -0.893  50.928  1.00  0.00     0.056 A 
ATOM     22  N   UNL     1      31.462  -1.296  50.595  1.00  0.00    -0.242 NA
ATOM     23  C   UNL     1      33.972  -1.509  50.377  1.00  0.00     0.068 C 
ENDBRANCH  15  18
BRANCH  16  24
ATOM     24  C   UNL     1      31.534   3.317  55.972  1.00  0.00     0.416 C 
ATOM     25  F   UNL     1      31.650   2.470  57.015  1.00  0.00    -0.166 F 
ATOM     26  F   UNL     1      32.805   3.548  55.664  1.00  0.00    -0.166 F 
ATOM     27  F   UNL     1      30.930   4.396  56.510  1.00  0.00    -0.166 F 
ENDBRANCH  16  24
ENDBRANCH  10  12
ENDBRANCH   1   8
BRANCH   6  28
ATOM     28  N   UNL     1      23.873   6.698  53.554  1.00  0.00    -0.324 N 
ATOM     29  H   UNL     1      24.260   7.557  53.138  1.00  0.00     0.170 HD
BRANCH  28  30
ATOM     30  C   UNL     1      23.209   6.747  54.781  1.00  0.00     0.227 A 
ATOM     31  N   UNL     1      21.915   6.918  55.021  1.00  0.00    -0.221 NA
ATOM     32  N   UNL     1      24.147   6.667  55.760  1.00  0.00    -0.213 NA
ATOM     33  C   UNL     1      21.541   6.972  56.313  1.00  0.00     0.117 A 
ATOM     34  C   UNL     1      23.730   6.757  57.028  1.00  0.00     0.077 A 
ATOM     35  C   UNL     1      22.422   6.914  57.324  1.00  0.00     0.049 A 
BRANCH  34  36
ATOM     36  C   UNL     1      24.790   6.629  58.063  1.00  0.00     0.019 A 
ATOM     37  C   UNL     1      24.475   6.469  59.422  1.00  0.00     0.013 A 
ATOM     38  C   UNL     1      26.151   6.679  57.703  1.00  0.00     0.121 A 
ATOM     39  C   UNL     1      25.507   6.379  60.347  1.00  0.00     0.021 A 
ATOM     40  N   UNL     1      27.150   6.601  58.592  1.00  0.00    -0.264 NA
ATOM     41  C   UNL     1      26.821   6.423  59.881  1.00  0.00     0.111 A 
ENDBRANCH  34  36
ENDBRANCH  28  30
ENDBRANCH   6  28
TORSDOF 7
ENDMDL
MODEL 15
REMARK VINA RESULT:   -10.869      8.336     15.195
REMARK INTER + INTRA:         -14.264
REMARK INTER:                 -12.957
REMARK INTRA:                  -1.307
REMARK CONF_INDEPENDENT:        2.088
REMARK UNBOUND:                -1.307
REMARK SMILES Cc1cn(-c2cc(NC(=O)c3ccc(C)c(Nc4nccc(-c5cccnc5)n4)c3)cc(C(F)(F)F)c2)cn1
REMARK SMILES IDX 11 1 12 2 13 3 14 4 15 5 16 6 30 7 9 8 10 9 8 10 7 12 6 13
REMARK SMILES IDX 31 14 5 15 32 16 37 17 4 18 3 19 38 20 2 21 39 22 1 23 33 24
REMARK SMILES IDX 34 25 35 26 36 27 17 28 18 30 19 31 29 32 20 33 22 34 21 35
REMARK SMILES IDX 23 36 24 37 28 38 25 39 27 40 26 41
REMARK H PARENT 8 11 17 29
ROOT
ATOM      1  C   UNL     1      35.974  -1.757  49.346  1.00  0.00     0.042 A 
ATOM      2  C   UNL     1      35.156  -2.889  49.214  1.00  0.00     0.014 A 
ATOM      3  C   UNL     1      33.778  -2.819  49.426  1.00  0.00     0.006 A 
ATOM      4  C   UNL     1      33.176  -1.647  49.856  1.00  0.00    -0.027 A 
ATOM      5  C   UNL     1      31.673  -1.588  50.091  1.00  0.00     0.046 C 
ATOM      6  C   UNL     1      33.998  -0.546  50.090  1.00  0.00     0.045 A 
ATOM      7  C   UNL     1      35.375  -0.630  49.847  1.00  0.00     0.040 A 
ENDROOT
BRANCH   1   8
ATOM      8  C   UNL     1      37.448  -1.768  49.266  1.00  0.00     0.255 C 
ATOM      9  O   UNL     1      38.025  -1.537  50.301  1.00  0.00    -0.269 OA
ATOM     10  N   UNL     1      37.975  -2.271  48.140  1.00  0.00    -0.322 N 
ATOM     11  H   UNL     1      37.317  -2.547  47.398  1.00  0.00     0.170 HD
BRANCH  10  12
ATOM     12  C   UNL     1      39.328  -2.454  47.884  1.00  0.00     0.044 A 
ATOM     13  C   UNL     1      39.901  -2.028  46.659  1.00  0.00     0.052 A 
ATOM     14  C   UNL     1      40.139  -3.176  48.787  1.00  0.00     0.039 A 
ATOM     15  C   UNL     1      41.263  -2.199  46.396  1.00  0.00     0.049 A 
ATOM     16  C   UNL     1      41.531  -3.330  48.527  1.00  0.00     0.060 A 
ATOM     17  C   UNL     1      42.060  -2.868  47.320  1.00  0.00     0.039 A 
BRANCH  15  18
ATOM     18  N   UNL     1      41.847  -1.743  45.205  1.00  0.00    -0.306 N 
ATOM     19  C   UNL     1      42.133  -0.437  44.814  1.00  0.00     0.116 A 
ATOM     20  C   UNL     1      42.173  -2.483  44.139  1.00  0.00     0.204 A 
ATOM     21  C   UNL     1      42.613  -0.469  43.552  1.00  0.00     0.056 A 
ATOM     22  N   UNL     1      42.661  -1.762  43.159  1.00  0.00    -0.242 NA
ATOM     23  C   UNL     1      43.079   0.690  42.705  1.00  0.00     0.068 C 
ENDBRANCH  15  18
BRANCH  16  24
ATOM     24  C   UNL     1      42.377  -4.047  49.528  1.00  0.00     0.416 C 
ATOM     25  F   UNL     1      42.703  -5.312  49.197  1.00  0.00    -0.166 F 
ATOM     26  F   UNL     1      43.570  -3.475  49.641  1.00  0.00    -0.166 F 
ATOM     27  F   UNL     1      41.757  -4.184  50.719  1.00  0.00    -0.166 F 
ENDBRANCH  16  24
ENDBRANCH  10  12
ENDBRANCH   1   8
BRANCH   6  28
ATOM     28  N   UNL     1      33.397   0.688  50.367  1.00  0.00    -0.324 N 
ATOM     29  H   UNL     1      33.097   1.304  49.597  1.00  0.00     0.170 HD
BRANCH  28  30
ATOM     30  C   UNL     1      33.207   1.077  51.694  1.00  0.00     0.227 A 
ATOM     31  N   UNL     1      33.897   1.955  52.411  1.00  0.00    -0.221 NA
ATOM     32  N   UNL     1      32.197   0.325  52.203  1.00  0.00    -0.213 NA
ATOM     33  C   UNL     1      33.526   2.112  53.696  1.00  0.00     0.117 A 
ATOM     34  C   UNL     1      31.886   0.493  53.494  1.00  0.00     0.077 A 
ATOM     35  C   UNL     1      32.547   1.387  54.260  1.00  0.00     0.049 A 
BRANCH  34  36
ATOM     36  C   UNL     1      30.752  -0.328  53.993  1.00  0.00     0.019 A 
ATOM     37  C   UNL     1      29.669   0.251  54.674  1.00  0.00     0.013 A 
ATOM     38  C   UNL     1      30.743  -1.724  53.807  1.00  0.00     0.121 A 
ATOM     39  C   UNL     1      28.650  -0.569  55.141  1.00  0.00     0.021 A 
ATOM     40  N   UNL     1      29.767  -2.520  54.261  1.00  0.00    -0.264 NA
ATOM     41  C   UNL     1      28.731  -1.937  54.887  1.00  0.00     0.111 A 
ENDBRANCH  34  36
ENDBRANCH  28  30
ENDBRANCH   6  28
TORSDOF 7
ENDMDL
MODEL 16
REMARK VINA RESULT:   -10.851      4.691      8.345
REMARK INTER + INTRA:         -14.008
REMARK INTER:                 -12.939
REMARK INTRA:                  -1.069
REMARK CONF_INDEPENDENT:        2.088
REMARK UNBOUND:                -1.069
REMARK SMILES Cc1cn(-c2cc(NC(=O)c3ccc(C)c(Nc4nccc(-c5cccnc5)n4)c3)cc(C(F)(F)F)c2)cn1
REMARK SMILES IDX 11 1 12 2 13 3 14 4 15 5 16 6 30 7 9 8 10 9 8 10 7 12 6 13
REMARK SMILES IDX 31 14 5 15 32 16 37 17 4 18 3 19 38 20 2 21 39 22 1 23 33 24
REMARK SMILES IDX 34 25 35 26 36 27 17 28 18 30 19 31 29 32 20 33 22 34 21 35
REMARK SMILES IDX 23 36 24 37 28 38 25 39 27 40 26 41
REMARK H PARENT 8 11 17 29
ROOT
ATOM      1  C   UNL     1      34.502  -0.924  50.800  1.00  0.00     0.042 A 
ATOM      2  C   UNL     1      34.620  -2.169  50.163  1.00  0.00     0.014 A 
ATOM      3  C   UNL     1      35.603  -2.403  49.200  1.00  0.00     0.006 A 
ATOM      4  C   UNL     1      36.447  -1.390  48.775  1.00  0.00    -0.027 A 
ATOM      5  C   UNL     1      37.509  -1.658  47.718  1.00  0.00     0.046 C 
ATOM      6  C   UNL     1      36.267  -0.124  49.328  1.00  0.00     0.045 A 
ATOM      7  C   UNL     1      35.292   0.085  50.311  1.00  0.00     0.040 A 
ENDROOT
BRANCH   1   8
ATOM      8  C   UNL     1      33.419  -0.552  51.731  1.00  0.00     0.255 C 
ATOM      9  O   UNL     1      33.683   0.338  52.503  1.00  0.00    -0.269 OA
ATOM     10  N   UNL     1      32.205  -1.052  51.457  1.00  0.00    -0.322 N 
ATOM     11  H   UNL     1      32.137  -1.705  50.664  1.00  0.00     0.170 HD
BRANCH  10  12
ATOM     12  C   UNL     1      31.032  -0.770  52.145  1.00  0.00     0.044 A 
ATOM     13  C   UNL     1      30.219   0.330  51.776  1.00  0.00     0.052 A 
ATOM     14  C   UNL     1      30.686  -1.500  53.303  1.00  0.00     0.039 A 
ATOM     15  C   UNL     1      29.032   0.616  52.457  1.00  0.00     0.049 A 
ATOM     16  C   UNL     1      29.465  -1.222  53.981  1.00  0.00     0.060 A 
ATOM     17  C   UNL     1      28.677  -0.146  53.565  1.00  0.00     0.039 A 
BRANCH  15  18
ATOM     18  N   UNL     1      28.199   1.677  52.073  1.00  0.00    -0.306 N 
ATOM     19  C   UNL     1      27.149   2.265  52.776  1.00  0.00     0.116 A 
ATOM     20  C   UNL     1      28.185   2.297  50.886  1.00  0.00     0.204 A 
ATOM     21  C   UNL     1      26.576   3.195  51.981  1.00  0.00     0.056 A 
ATOM     22  N   UNL     1      27.259   3.222  50.815  1.00  0.00    -0.242 NA
ATOM     23  C   UNL     1      25.416   4.106  52.303  1.00  0.00     0.068 C 
ENDBRANCH  15  18
BRANCH  16  24
ATOM     24  C   UNL     1      29.093  -2.050  55.168  1.00  0.00     0.416 C 
ATOM     25  F   UNL     1      28.322  -3.121  54.896  1.00  0.00    -0.166 F 
ATOM     26  F   UNL     1      30.166  -2.614  55.711  1.00  0.00    -0.166 F 
ATOM     27  F   UNL     1      28.364  -1.359  56.068  1.00  0.00    -0.166 F 
ENDBRANCH  16  24
ENDBRANCH  10  12
ENDBRANCH   1   8
BRANCH   6  28
ATOM     28  N   UNL     1      37.209   0.872  49.036  1.00  0.00    -0.324 N 
ATOM     29  H   UNL     1      36.901   1.800  48.713  1.00  0.00     0.170 HD
BRANCH  28  30
ATOM     30  C   UNL     1      38.569   0.595  49.186  1.00  0.00     0.227 A 
ATOM     31  N   UNL     1      39.210   0.116  50.245  1.00  0.00    -0.221 NA
ATOM     32  N   UNL     1      39.196   0.983  48.045  1.00  0.00    -0.213 NA
ATOM     33  C   UNL     1      40.545  -0.016  50.136  1.00  0.00     0.117 A 
ATOM     34  C   UNL     1      40.528   0.863  47.997  1.00  0.00     0.077 A 
ATOM     35  C   UNL     1      41.223   0.364  49.041  1.00  0.00     0.049 A 
BRANCH  34  36
ATOM     36  C   UNL     1      41.163   1.268  46.715  1.00  0.00     0.019 A 
ATOM     37  C   UNL     1      40.938   2.533  46.151  1.00  0.00     0.013 A 
ATOM     38  C   UNL     1      42.004   0.376  46.020  1.00  0.00     0.121 A 
ATOM     39  C   UNL     1      41.538   2.848  44.938  1.00  0.00     0.021 A 
ATOM     40  N   UNL     1      42.578   0.671  44.847  1.00  0.00    -0.264 NA
ATOM     41  C   UNL     1      42.366   1.898  44.343  1.00  0.00     0.111 A 
ENDBRANCH  34  36
ENDBRANCH  28  30
ENDBRANCH   6  28
TORSDOF 7
ENDMDL
MODEL 17
REMARK VINA RESULT:   -10.827      3.415      5.483
REMARK INTER + INTRA:         -13.993
REMARK INTER:                 -12.915
REMARK INTRA:                  -1.078
REMARK CONF_INDEPENDENT:        2.088
REMARK UNBOUND:                -1.078
REMARK SMILES Cc1cn(-c2cc(NC(=O)c3ccc(C)c(Nc4nccc(-c5cccnc5)n4)c3)cc(C(F)(F)F)c2)cn1
REMARK SMILES IDX 11 1 12 2 13 3 14 4 15 5 16 6 30 7 9 8 10 9 8 10 7 12 6 13
REMARK SMILES IDX 31 14 5 15 32 16 37 17 4 18 3 19 38 20 2 21 39 22 1 23 33 24
REMARK SMILES IDX 34 25 35 26 36 27 17 28 18 30 19 31 29 32 20 33 22 34 21 35
REMARK SMILES IDX 23 36 24 37 28 38 25 39 27 40 26 41
REMARK H PARENT 8 11 17 29
ROOT
ATOM      1  C   UNL     1      27.698   1.932  52.451  1.00  0.00     0.042 A 
ATOM      2  C   UNL     1      27.934   0.802  51.653  1.00  0.00     0.014 A 
ATOM      3  C   UNL     1      28.914  -0.133  51.990  1.00  0.00     0.006 A 
ATOM      4  C   UNL     1      29.747   0.060  53.080  1.00  0.00    -0.027 A 
ATOM      5  C   UNL     1      30.816  -0.965  53.431  1.00  0.00     0.046 C 
ATOM      6  C   UNL     1      29.586   1.233  53.816  1.00  0.00     0.045 A 
ATOM      7  C   UNL     1      28.581   2.147  53.477  1.00  0.00     0.040 A 
ENDROOT
BRANCH   1   8
ATOM      8  C   UNL     1      26.775   3.031  52.104  1.00  0.00     0.255 C 
ATOM      9  O   UNL     1      26.720   3.311  50.931  1.00  0.00    -0.269 OA
ATOM     10  N   UNL     1      25.928   3.419  53.069  1.00  0.00    -0.322 N 
ATOM     11  H   UNL     1      26.031   2.970  53.990  1.00  0.00     0.170 HD
BRANCH  10  12
ATOM     12  C   UNL     1      24.924   4.371  52.940  1.00  0.00     0.044 A 
ATOM     13  C   UNL     1      24.187   4.808  54.068  1.00  0.00     0.052 A 
ATOM     14  C   UNL     1      24.535   4.835  51.664  1.00  0.00     0.039 A 
ATOM     15  C   UNL     1      23.183   5.773  53.949  1.00  0.00     0.049 A 
ATOM     16  C   UNL     1      23.527   5.834  51.548  1.00  0.00     0.060 A 
ATOM     17  C   UNL     1      22.845   6.259  52.690  1.00  0.00     0.039 A 
BRANCH  15  18
ATOM     18  N   UNL     1      22.476   6.243  55.066  1.00  0.00    -0.306 N 
ATOM     19  C   UNL     1      22.971   6.753  56.265  1.00  0.00     0.116 A 
ATOM     20  C   UNL     1      21.150   6.213  55.246  1.00  0.00     0.204 A 
ATOM     21  C   UNL     1      21.925   7.000  57.083  1.00  0.00     0.056 A 
ATOM     22  N   UNL     1      20.792   6.686  56.415  1.00  0.00    -0.242 NA
ATOM     23  C   UNL     1      21.952   7.574  58.479  1.00  0.00     0.068 C 
ENDBRANCH  15  18
BRANCH  16  24
ATOM     24  C   UNL     1      23.177   6.351  50.190  1.00  0.00     0.416 C 
ATOM     25  F   UNL     1      22.037   5.855  49.668  1.00  0.00    -0.166 F 
ATOM     26  F   UNL     1      22.918   7.653  50.227  1.00  0.00    -0.166 F 
ATOM     27  F   UNL     1      24.108   6.036  49.266  1.00  0.00    -0.166 F 
ENDBRANCH  16  24
ENDBRANCH  10  12
ENDBRANCH   1   8
BRANCH   6  28
ATOM     28  N   UNL     1      30.303   1.373  55.012  1.00  0.00    -0.324 N 
ATOM     29  H   UNL     1      30.078   0.783  55.825  1.00  0.00     0.170 HD
BRANCH  28  30
ATOM     30  C   UNL     1      31.327   2.320  55.091  1.00  0.00     0.227 A 
ATOM     31  N   UNL     1      32.199   2.682  54.160  1.00  0.00    -0.221 NA
ATOM     32  N   UNL     1      31.352   2.792  56.364  1.00  0.00    -0.213 NA
ATOM     33  C   UNL     1      33.121   3.597  54.517  1.00  0.00     0.117 A 
ATOM     34  C   UNL     1      32.306   3.675  56.681  1.00  0.00     0.077 A 
ATOM     35  C   UNL     1      33.206   4.089  55.763  1.00  0.00     0.049 A 
BRANCH  34  36
ATOM     36  C   UNL     1      32.270   4.188  58.075  1.00  0.00     0.019 A 
ATOM     37  C   UNL     1      31.750   5.457  58.379  1.00  0.00     0.013 A 
ATOM     38  C   UNL     1      32.775   3.412  59.136  1.00  0.00     0.121 A 
ATOM     39  C   UNL     1      31.765   5.895  59.697  1.00  0.00     0.021 A 
ATOM     40  N   UNL     1      32.799   3.832  60.408  1.00  0.00    -0.264 NA
ATOM     41  C   UNL     1      32.272   5.038  60.673  1.00  0.00     0.111 A 
ENDBRANCH  34  36
ENDBRANCH  28  30
ENDBRANCH   6  28
TORSDOF 7
ENDMDL
MODEL 18
REMARK VINA RESULT:   -10.778      4.646     13.505
REMARK INTER + INTRA:         -14.220
REMARK INTER:                 -12.866
REMARK INTRA:                  -1.354
REMARK CONF_INDEPENDENT:        2.088
REMARK UNBOUND:                -1.354
REMARK SMILES Cc1cn(-c2cc(NC(=O)c3ccc(C)c(Nc4nccc(-c5cccnc5)n4)c3)cc(C(F)(F)F)c2)cn1
REMARK SMILES IDX 11 1 12 2 13 3 14 4 15 5 16 6 30 7 9 8 10 9 8 10 7 12 6 13
REMARK SMILES IDX 31 14 5 15 32 16 37 17 4 18 3 19 38 20 2 21 39 22 1 23 33 24
REMARK SMILES IDX 34 25 35 26 36 27 17 28 18 30 19 31 29 32 20 33 22 34 21 35
REMARK SMILES IDX 23 36 24 37 28 38 25 39 27 40 26 41
REMARK H PARENT 8 11 17 29
ROOT
ATOM      1  C   UNL     1      21.160   7.153  54.190  1.00  0.00     0.042 A 
ATOM      2  C   UNL     1      20.952   7.306  55.569  1.00  0.00     0.014 A 
ATOM      3  C   UNL     1      20.230   8.385  56.081  1.00  0.00     0.006 A 
ATOM      4  C   UNL     1      19.761   9.392  55.253  1.00  0.00    -0.027 A 
ATOM      5  C   UNL     1      18.982  10.568  55.825  1.00  0.00     0.046 C 
ATOM      6  C   UNL     1      20.053   9.300  53.893  1.00  0.00     0.045 A 
ATOM      7  C   UNL     1      20.758   8.196  53.397  1.00  0.00     0.040 A 
ENDROOT
BRANCH   1   8
ATOM      8  C   UNL     1      22.014   6.118  53.576  1.00  0.00     0.255 C 
ATOM      9  O   UNL     1      21.899   5.009  54.038  1.00  0.00    -0.269 OA
ATOM     10  N   UNL     1      22.622   6.457  52.429  1.00  0.00    -0.322 N 
ATOM     11  H   UNL     1      22.501   7.427  52.105  1.00  0.00     0.170 HD
BRANCH  10  12
ATOM     12  C   UNL     1      23.401   5.620  51.640  1.00  0.00     0.044 A 
ATOM     13  C   UNL     1      24.518   4.940  52.184  1.00  0.00     0.052 A 
ATOM     14  C   UNL     1      23.169   5.523  50.251  1.00  0.00     0.039 A 
ATOM     15  C   UNL     1      25.302   4.088  51.401  1.00  0.00     0.049 A 
ATOM     16  C   UNL     1      23.954   4.637  49.459  1.00  0.00     0.060 A 
ATOM     17  C   UNL     1      25.029   3.962  50.042  1.00  0.00     0.039 A 
BRANCH  15  18
ATOM     18  N   UNL     1      26.385   3.377  51.940  1.00  0.00    -0.306 N 
ATOM     19  C   UNL     1      26.719   3.171  53.277  1.00  0.00     0.116 A 
ATOM     20  C   UNL     1      27.393   2.816  51.261  1.00  0.00     0.204 A 
ATOM     21  C   UNL     1      27.891   2.502  53.321  1.00  0.00     0.056 A 
ATOM     22  N   UNL     1      28.280   2.261  52.049  1.00  0.00    -0.242 NA
ATOM     23  C   UNL     1      28.648   2.034  54.540  1.00  0.00     0.068 C 
ENDBRANCH  15  18
BRANCH  16  24
ATOM     24  C   UNL     1      23.648   4.508  48.002  1.00  0.00     0.416 C 
ATOM     25  F   UNL     1      24.527   5.113  47.179  1.00  0.00    -0.166 F 
ATOM     26  F   UNL     1      23.728   3.243  47.608  1.00  0.00    -0.166 F 
ATOM     27  F   UNL     1      22.469   5.076  47.673  1.00  0.00    -0.166 F 
ENDBRANCH  16  24
ENDBRANCH  10  12
ENDBRANCH   1   8
BRANCH   6  28
ATOM     28  N   UNL     1      19.454  10.215  53.018  1.00  0.00    -0.324 N 
ATOM     29  H   UNL     1      20.033  10.785  52.386  1.00  0.00     0.170 HD
BRANCH  28  30
ATOM     30  C   UNL     1      18.064  10.348  53.010  1.00  0.00     0.227 A 
ATOM     31  N   UNL     1      17.334  11.446  52.864  1.00  0.00    -0.221 NA
ATOM     32  N   UNL     1      17.532   9.125  53.265  1.00  0.00    -0.213 NA
ATOM     33  C   UNL     1      15.997  11.299  52.940  1.00  0.00     0.117 A 
ATOM     34  C   UNL     1      16.200   9.035  53.363  1.00  0.00     0.077 A 
ATOM     35  C   UNL     1      15.413  10.120  53.205  1.00  0.00     0.049 A 
BRANCH  34  36
ATOM     36  C   UNL     1      15.666   7.669  53.608  1.00  0.00     0.019 A 
ATOM     37  C   UNL     1      15.900   6.616  52.710  1.00  0.00     0.013 A 
ATOM     38  C   UNL     1      14.890   7.400  54.752  1.00  0.00     0.121 A 
ATOM     39  C   UNL     1      15.354   5.367  52.978  1.00  0.00     0.021 A 
ATOM     40  N   UNL     1      14.354   6.200  55.011  1.00  0.00    -0.264 NA
ATOM     41  C   UNL     1      14.615   5.204  54.149  1.00  0.00     0.111 A 
ENDBRANCH  34  36
ENDBRANCH  28  30
ENDBRANCH   6  28
TORSDOF 7
ENDMDL
MODEL 19
REMARK VINA RESULT:   -10.578      8.254     14.878
REMARK INTER + INTRA:         -14.019
REMARK INTER:                 -12.666
REMARK INTRA:                  -1.353
REMARK CONF_INDEPENDENT:        2.088
REMARK UNBOUND:                -1.353
REMARK SMILES Cc1cn(-c2cc(NC(=O)c3ccc(C)c(Nc4nccc(-c5cccnc5)n4)c3)cc(C(F)(F)F)c2)cn1
REMARK SMILES IDX 11 1 12 2 13 3 14 4 15 5 16 6 30 7 9 8 10 9 8 10 7 12 6 13
REMARK SMILES IDX 31 14 5 15 32 16 37 17 4 18 3 19 38 20 2 21 39 22 1 23 33 24
REMARK SMILES IDX 34 25 35 26 36 27 17 28 18 30 19 31 29 32 20 33 22 34 21 35
REMARK SMILES IDX 23 36 24 37 28 38 25 39 27 40 26 41
REMARK H PARENT 8 11 17 29
ROOT
ATOM      1  C   UNL     1      36.128  -1.618  49.594  1.00  0.00     0.042 A 
ATOM      2  C   UNL     1      35.416  -2.798  49.332  1.00  0.00     0.014 A 
ATOM      3  C   UNL     1      34.022  -2.834  49.386  1.00  0.00     0.006 A 
ATOM      4  C   UNL     1      33.290  -1.726  49.781  1.00  0.00    -0.027 A 
ATOM      5  C   UNL     1      31.770  -1.782  49.843  1.00  0.00     0.046 C 
ATOM      6  C   UNL     1      33.996  -0.580  50.143  1.00  0.00     0.045 A 
ATOM      7  C   UNL     1      35.394  -0.557  50.058  1.00  0.00     0.040 A 
ENDROOT
BRANCH   1   8
ATOM      8  C   UNL     1      37.598  -1.522  49.684  1.00  0.00     0.255 C 
ATOM      9  O   UNL     1      38.018  -0.820  50.571  1.00  0.00    -0.269 OA
ATOM     10  N   UNL     1      38.294  -2.403  48.950  1.00  0.00    -0.322 N 
ATOM     11  H   UNL     1      37.755  -3.028  48.335  1.00  0.00     0.170 HD
BRANCH  10  12
ATOM     12  C   UNL     1      39.676  -2.548  48.944  1.00  0.00     0.044 A 
ATOM     13  C   UNL     1      40.415  -2.527  50.153  1.00  0.00     0.052 A 
ATOM     14  C   UNL     1      40.387  -2.598  47.725  1.00  0.00     0.039 A 
ATOM     15  C   UNL     1      41.804  -2.682  50.158  1.00  0.00     0.049 A 
ATOM     16  C   UNL     1      41.800  -2.778  47.733  1.00  0.00     0.060 A 
ATOM     17  C   UNL     1      42.486  -2.783  48.949  1.00  0.00     0.039 A 
BRANCH  15  18
ATOM     18  N   UNL     1      42.539  -2.705  51.352  1.00  0.00    -0.306 N 
ATOM     19  C   UNL     1      42.567  -3.683  52.345  1.00  0.00     0.116 A 
ATOM     20  C   UNL     1      43.314  -1.727  51.835  1.00  0.00     0.204 A 
ATOM     21  C   UNL     1      43.352  -3.240  53.351  1.00  0.00     0.056 A 
ATOM     22  N   UNL     1      43.835  -2.029  52.999  1.00  0.00    -0.242 NA
ATOM     23  C   UNL     1      43.704  -3.951  54.636  1.00  0.00     0.068 C 
ENDBRANCH  15  18
BRANCH  16  24
ATOM     24  C   UNL     1      42.520  -2.889  46.428  1.00  0.00     0.416 C 
ATOM     25  F   UNL     1      41.834  -2.439  45.359  1.00  0.00    -0.166 F 
ATOM     26  F   UNL     1      43.597  -2.112  46.411  1.00  0.00    -0.166 F 
ATOM     27  F   UNL     1      42.802  -4.168  46.105  1.00  0.00    -0.166 F 
ENDBRANCH  16  24
ENDBRANCH  10  12
ENDBRANCH   1   8
BRANCH   6  28
ATOM     28  N   UNL     1      33.277   0.597  50.388  1.00  0.00    -0.324 N 
ATOM     29  H   UNL     1      32.900   1.147  49.604  1.00  0.00     0.170 HD
BRANCH  28  30
ATOM     30  C   UNL     1      33.077   1.017  51.704  1.00  0.00     0.227 A 
ATOM     31  N   UNL     1      33.742   1.934  52.396  1.00  0.00    -0.221 NA
ATOM     32  N   UNL     1      32.088   0.252  52.235  1.00  0.00    -0.213 NA
ATOM     33  C   UNL     1      33.367   2.116  53.676  1.00  0.00     0.117 A 
ATOM     34  C   UNL     1      31.773   0.448  53.520  1.00  0.00     0.077 A 
ATOM     35  C   UNL     1      32.409   1.381  54.261  1.00  0.00     0.049 A 
BRANCH  34  36
ATOM     36  C   UNL     1      30.662  -0.389  54.044  1.00  0.00     0.019 A 
ATOM     37  C   UNL     1      29.625   0.163  54.813  1.00  0.00     0.013 A 
ATOM     38  C   UNL     1      30.629  -1.774  53.790  1.00  0.00     0.121 A 
ATOM     39  C   UNL     1      28.626  -0.673  55.297  1.00  0.00     0.021 A 
ATOM     40  N   UNL     1      29.673  -2.586  54.261  1.00  0.00    -0.264 NA
ATOM     41  C   UNL     1      28.680  -2.028  54.972  1.00  0.00     0.111 A 
ENDBRANCH  34  36
ENDBRANCH  28  30
ENDBRANCH   6  28
TORSDOF 7
ENDMDL
MODEL 20
REMARK VINA RESULT:   -10.319      2.711      5.014
REMARK INTER + INTRA:         -13.981
REMARK INTER:                 -12.407
REMARK INTRA:                  -1.574
REMARK CONF_INDEPENDENT:        2.088
REMARK UNBOUND:                -1.574
REMARK SMILES Cc1cn(-c2cc(NC(=O)c3ccc(C)c(Nc4nccc(-c5cccnc5)n4)c3)cc(C(F)(F)F)c2)cn1
REMARK SMILES IDX 11 1 12 2 13 3 14 4 15 5 16 6 30 7 9 8 10 9 8 10 7 12 6 13
REMARK SMILES IDX 31 14 5 15 32 16 37 17 4 18 3 19 38 20 2 21 39 22 1 23 33 24
REMARK SMILES IDX 34 25 35 26 36 27 17 28 18 30 19 31 29 32 20 33 22 34 21 35
REMARK SMILES IDX 23 36 24 37 28 38 25 39 27 40 26 41
REMARK H PARENT 8 11 17 29
ROOT
ATOM      1  C   UNL     1      27.573   1.358  52.850  1.00  0.00     0.042 A 
ATOM      2  C   UNL     1      27.507   0.698  54.087  1.00  0.00     0.014 A 
ATOM      3  C   UNL     1      28.400  -0.323  54.414  1.00  0.00     0.006 A 
ATOM      4  C   UNL     1      29.334  -0.782  53.499  1.00  0.00    -0.027 A 
ATOM      5  C   UNL     1      30.297  -1.901  53.868  1.00  0.00     0.046 C 
ATOM      6  C   UNL     1      29.336  -0.201  52.232  1.00  0.00     0.045 A 
ATOM      7  C   UNL     1      28.448   0.840  51.931  1.00  0.00     0.040 A 
ENDROOT
BRANCH   1   8
ATOM      8  C   UNL     1      26.594   2.355  52.373  1.00  0.00     0.255 C 
ATOM      9  O   UNL     1      26.199   2.194  51.244  1.00  0.00    -0.269 OA
ATOM     10  N   UNL     1      26.070   3.163  53.306  1.00  0.00    -0.322 N 
ATOM     11  H   UNL     1      26.437   3.071  54.264  1.00  0.00     0.170 HD
BRANCH  10  12
ATOM     12  C   UNL     1      25.078   4.113  53.099  1.00  0.00     0.044 A 
ATOM     13  C   UNL     1      24.655   4.449  51.789  1.00  0.00     0.052 A 
ATOM     14  C   UNL     1      24.554   4.852  54.182  1.00  0.00     0.039 A 
ATOM     15  C   UNL     1      23.650   5.396  51.571  1.00  0.00     0.049 A 
ATOM     16  C   UNL     1      23.515   5.800  53.960  1.00  0.00     0.060 A 
ATOM     17  C   UNL     1      23.106   6.079  52.654  1.00  0.00     0.039 A 
BRANCH  15  18
ATOM     18  N   UNL     1      23.195   5.705  50.281  1.00  0.00    -0.306 N 
ATOM     19  C   UNL     1      23.935   5.929  49.121  1.00  0.00     0.116 A 
ATOM     20  C   UNL     1      21.931   5.943  49.913  1.00  0.00     0.204 A 
ATOM     21  C   UNL     1      23.080   6.279  48.136  1.00  0.00     0.056 A 
ATOM     22  N   UNL     1      21.828   6.250  48.643  1.00  0.00    -0.242 NA
ATOM     23  C   UNL     1      23.403   6.601  46.697  1.00  0.00     0.068 C 
ENDBRANCH  15  18
BRANCH  16  24
ATOM     24  C   UNL     1      22.936   6.524  55.132  1.00  0.00     0.416 C 
ATOM     25  F   UNL     1      21.651   6.227  55.408  1.00  0.00    -0.166 F 
ATOM     26  F   UNL     1      23.547   6.174  56.258  1.00  0.00    -0.166 F 
ATOM     27  F   UNL     1      22.917   7.861  54.951  1.00  0.00    -0.166 F 
ENDBRANCH  16  24
ENDBRANCH  10  12
ENDBRANCH   1   8
BRANCH   6  28
ATOM     28  N   UNL     1      30.371  -0.532  51.348  1.00  0.00    -0.324 N 
ATOM     29  H   UNL     1      30.199  -1.178  50.565  1.00  0.00     0.170 HD
BRANCH  28  30
ATOM     30  C   UNL     1      31.640   0.020  51.538  1.00  0.00     0.227 A 
ATOM     31  N   UNL     1      32.765  -0.233  50.882  1.00  0.00    -0.221 NA
ATOM     32  N   UNL     1      31.570   0.852  52.610  1.00  0.00    -0.213 NA
ATOM     33  C   UNL     1      33.869   0.414  51.301  1.00  0.00     0.117 A 
ATOM     34  C   UNL     1      32.700   1.447  53.009  1.00  0.00     0.077 A 
ATOM     35  C   UNL     1      33.867   1.236  52.363  1.00  0.00     0.049 A 
BRANCH  34  36
ATOM     36  C   UNL     1      32.565   2.373  54.163  1.00  0.00     0.019 A 
ATOM     37  C   UNL     1      31.480   2.290  55.050  1.00  0.00     0.013 A 
ATOM     38  C   UNL     1      33.525   3.379  54.390  1.00  0.00     0.121 A 
ATOM     39  C   UNL     1      31.392   3.199  56.097  1.00  0.00     0.021 A 
ATOM     40  N   UNL     1      33.441   4.263  55.392  1.00  0.00    -0.264 NA
ATOM     41  C   UNL     1      32.407   4.144  56.240  1.00  0.00     0.111 A 
ENDBRANCH  34  36
ENDBRANCH  28  30
ENDBRANCH   6  28
TORSDOF 7
ENDMDL
