MODEL 1
REMARK VINA RESULT:   -15.152      0.000      0.000
REMARK INTER + INTRA:         -18.419
REMARK INTER:                 -17.240
REMARK INTRA:                  -1.179
REMARK CONF_INDEPENDENT:        2.088
REMARK UNBOUND:                -1.179
REMARK SMILES Cc1cn(-c2cc(NC(=O)c3ccc(C)c(Nc4nccc(-c5cccnc5)n4)c3)cc(C(F)(F)F)c2)cn1
REMARK SMILES IDX 11 1 12 2 13 3 14 4 15 5 16 6 30 7 9 8 10 9 8 10 7 12 6 13
REMARK SMILES IDX 31 14 5 15 32 16 37 17 4 18 3 19 38 20 2 21 39 22 1 23 33 24
REMARK SMILES IDX 34 25 35 26 36 27 17 28 18 30 19 31 29 32 20 33 22 34 21 35
REMARK SMILES IDX 23 36 24 37 28 38 25 39 27 40 26 41
REMARK H PARENT 8 11 17 29
ROOT
ATOM      1  C   UNL     1      27.974   1.862  53.220  1.00  0.00     0.042 A 
ATOM      2  C   UNL     1      27.696   1.352  54.497  1.00  0.00     0.014 A 
ATOM      3  C   UNL     1      28.417   0.281  55.025  1.00  0.00     0.006 A 
ATOM      4  C   UNL     1      29.381  -0.376  54.276  1.00  0.00    -0.027 A 
ATOM      5  C   UNL     1      30.154  -1.548  54.862  1.00  0.00     0.046 C 
ATOM      6  C   UNL     1      29.590   0.060  52.969  1.00  0.00     0.045 A 
ATOM      7  C   UNL     1      28.873   1.153  52.466  1.00  0.00     0.040 A 
ENDROOT
BRANCH   1   8
ATOM      8  C   UNL     1      27.182   2.903  52.536  1.00  0.00     0.255 C 
ATOM      9  O   UNL     1      27.525   3.157  51.407  1.00  0.00    -0.269 OA
ATOM     10  N   UNL     1      26.037   3.264  53.135  1.00  0.00    -0.322 N 
ATOM     11  H   UNL     1      25.835   2.840  54.051  1.00  0.00     0.170 HD
BRANCH  10  12
ATOM     12  C   UNL     1      25.101   4.159  52.632  1.00  0.00     0.044 A 
ATOM     13  C   UNL     1      24.177   4.803  53.492  1.00  0.00     0.052 A 
ATOM     14  C   UNL     1      24.970   4.355  51.240  1.00  0.00     0.039 A 
ATOM     15  C   UNL     1      23.237   5.712  52.997  1.00  0.00     0.049 A 
ATOM     16  C   UNL     1      24.027   5.298  50.740  1.00  0.00     0.060 A 
ATOM     17  C   UNL     1      23.155   5.934  51.627  1.00  0.00     0.039 A 
BRANCH  15  18
ATOM     18  N   UNL     1      22.346   6.387  53.845  1.00  0.00    -0.306 N 
ATOM     19  C   UNL     1      22.030   6.118  55.176  1.00  0.00     0.116 A 
ATOM     20  C   UNL     1      21.530   7.394  53.512  1.00  0.00     0.204 A 
ATOM     21  C   UNL     1      21.057   6.974  55.559  1.00  0.00     0.056 A 
ATOM     22  N   UNL     1      20.782   7.785  54.514  1.00  0.00    -0.242 NA
ATOM     23  C   UNL     1      20.400   7.086  56.914  1.00  0.00     0.068 C 
ENDBRANCH  15  18
BRANCH  16  24
ATOM     24  C   UNL     1      23.951   5.530  49.266  1.00  0.00     0.416 C 
ATOM     25  F   UNL     1      24.692   6.561  48.813  1.00  0.00    -0.166 F 
ATOM     26  F   UNL     1      24.465   4.506  48.595  1.00  0.00    -0.166 F 
ATOM     27  F   UNL     1      22.702   5.838  48.859  1.00  0.00    -0.166 F 
ENDBRANCH  16  24
ENDBRANCH  10  12
ENDBRANCH   1   8
BRANCH   6  28
ATOM     28  N   UNL     1      30.666  -0.478  52.251  1.00  0.00    -0.324 N 
ATOM     29  H   UNL     1      30.525  -1.292  51.636  1.00  0.00     0.170 HD
BRANCH  28  30
ATOM     30  C   UNL     1      31.932   0.098  52.376  1.00  0.00     0.227 A 
ATOM     31  N   UNL     1      32.327   1.070  53.189  1.00  0.00    -0.221 NA
ATOM     32  N   UNL     1      32.734  -0.460  51.433  1.00  0.00    -0.213 NA
ATOM     33  C   UNL     1      33.607   1.472  53.073  1.00  0.00     0.117 A 
ATOM     34  C   UNL     1      33.988  -0.005  51.335  1.00  0.00     0.077 A 
ATOM     35  C   UNL     1      34.443   0.969  52.151  1.00  0.00     0.049 A 
BRANCH  34  36
ATOM     36  C   UNL     1      34.835  -0.673  50.312  1.00  0.00     0.019 A 
ATOM     37  C   UNL     1      36.131  -0.219  50.021  1.00  0.00     0.013 A 
ATOM     38  C   UNL     1      34.347  -1.780  49.591  1.00  0.00     0.121 A 
ATOM     39  C   UNL     1      36.868  -0.866  49.037  1.00  0.00     0.021 A 
ATOM     40  N   UNL     1      35.049  -2.403  48.636  1.00  0.00    -0.264 NA
ATOM     41  C   UNL     1      36.295  -1.964  48.396  1.00  0.00     0.111 A 
ENDBRANCH  34  36
ENDBRANCH  28  30
ENDBRANCH   6  28
TORSDOF 7
ENDMDL
MODEL 2
REMARK VINA RESULT:   -13.095      2.372      3.683
REMARK INTER + INTRA:         -16.400
REMARK INTER:                 -15.184
REMARK INTRA:                  -1.217
REMARK CONF_INDEPENDENT:        2.088
REMARK UNBOUND:                -1.217
REMARK SMILES Cc1cn(-c2cc(NC(=O)c3ccc(C)c(Nc4nccc(-c5cccnc5)n4)c3)cc(C(F)(F)F)c2)cn1
REMARK SMILES IDX 11 1 12 2 13 3 14 4 15 5 16 6 30 7 9 8 10 9 8 10 7 12 6 13
REMARK SMILES IDX 31 14 5 15 32 16 37 17 4 18 3 19 38 20 2 21 39 22 1 23 33 24
REMARK SMILES IDX 34 25 35 26 36 27 17 28 18 30 19 31 29 32 20 33 22 34 21 35
REMARK SMILES IDX 23 36 24 37 28 38 25 39 27 40 26 41
REMARK H PARENT 8 11 17 29
ROOT
ATOM      1  C   UNL     1      28.218   1.406  53.363  1.00  0.00     0.042 A 
ATOM      2  C   UNL     1      27.936   0.755  54.572  1.00  0.00     0.014 A 
ATOM      3  C   UNL     1      28.667  -0.361  54.985  1.00  0.00     0.006 A 
ATOM      4  C   UNL     1      29.644  -0.918  54.176  1.00  0.00    -0.027 A 
ATOM      5  C   UNL     1      30.428  -2.140  54.635  1.00  0.00     0.046 C 
ATOM      6  C   UNL     1      29.858  -0.338  52.927  1.00  0.00     0.045 A 
ATOM      7  C   UNL     1      29.131   0.796  52.543  1.00  0.00     0.040 A 
ENDROOT
BRANCH   1   8
ATOM      8  C   UNL     1      27.418   2.508  52.792  1.00  0.00     0.255 C 
ATOM      9  O   UNL     1      27.655   2.777  51.639  1.00  0.00    -0.269 OA
ATOM     10  N   UNL     1      26.363   2.911  53.516  1.00  0.00    -0.322 N 
ATOM     11  H   UNL     1      26.234   2.469  54.438  1.00  0.00     0.170 HD
BRANCH  10  12
ATOM     12  C   UNL     1      25.431   3.868  53.138  1.00  0.00     0.044 A 
ATOM     13  C   UNL     1      25.099   4.060  51.774  1.00  0.00     0.052 A 
ATOM     14  C   UNL     1      24.883   4.753  54.092  1.00  0.00     0.039 A 
ATOM     15  C   UNL     1      24.154   5.014  51.384  1.00  0.00     0.049 A 
ATOM     16  C   UNL     1      23.904   5.709  53.695  1.00  0.00     0.060 A 
ATOM     17  C   UNL     1      23.583   5.844  52.343  1.00  0.00     0.039 A 
BRANCH  15  18
ATOM     18  N   UNL     1      23.788   5.183  50.040  1.00  0.00    -0.306 N 
ATOM     19  C   UNL     1      22.556   5.562  49.510  1.00  0.00     0.116 A 
ATOM     20  C   UNL     1      24.540   4.919  48.965  1.00  0.00     0.204 A 
ATOM     21  C   UNL     1      22.642   5.509  48.163  1.00  0.00     0.056 A 
ATOM     22  N   UNL     1      23.901   5.136  47.841  1.00  0.00    -0.242 NA
ATOM     23  C   UNL     1      21.576   5.847  47.149  1.00  0.00     0.068 C 
ENDBRANCH  15  18
BRANCH  16  24
ATOM     24  C   UNL     1      23.296   6.592  54.736  1.00  0.00     0.416 C 
ATOM     25  F   UNL     1      23.777   6.419  55.983  1.00  0.00    -0.166 F 
ATOM     26  F   UNL     1      23.583   7.868  54.505  1.00  0.00    -0.166 F 
ATOM     27  F   UNL     1      21.971   6.380  54.878  1.00  0.00    -0.166 F 
ENDBRANCH  16  24
ENDBRANCH  10  12
ENDBRANCH   1   8
BRANCH   6  28
ATOM     28  N   UNL     1      30.946  -0.780  52.164  1.00  0.00    -0.324 N 
ATOM     29  H   UNL     1      30.811  -1.490  51.430  1.00  0.00     0.170 HD
BRANCH  28  30
ATOM     30  C   UNL     1      32.215  -0.251  52.406  1.00  0.00     0.227 A 
ATOM     31  N   UNL     1      32.609   0.553  53.385  1.00  0.00    -0.221 NA
ATOM     32  N   UNL     1      33.024  -0.639  51.387  1.00  0.00    -0.213 NA
ATOM     33  C   UNL     1      33.894   0.955  53.359  1.00  0.00     0.117 A 
ATOM     34  C   UNL     1      34.284  -0.189  51.387  1.00  0.00     0.077 A 
ATOM     35  C   UNL     1      34.738   0.617  52.371  1.00  0.00     0.049 A 
BRANCH  34  36
ATOM     36  C   UNL     1      35.139  -0.671  50.270  1.00  0.00     0.019 A 
ATOM     37  C   UNL     1      34.919  -1.916  49.661  1.00  0.00     0.013 A 
ATOM     38  C   UNL     1      36.211   0.113  49.801  1.00  0.00     0.121 A 
ATOM     39  C   UNL     1      35.766  -2.326  48.639  1.00  0.00     0.021 A 
ATOM     40  N   UNL     1      37.035  -0.280  48.821  1.00  0.00    -0.264 NA
ATOM     41  C   UNL     1      36.787  -1.465  48.239  1.00  0.00     0.111 A 
ENDBRANCH  34  36
ENDBRANCH  28  30
ENDBRANCH   6  28
TORSDOF 7
ENDMDL
MODEL 3
REMARK VINA RESULT:   -12.447      1.539      3.543
REMARK INTER + INTRA:         -16.090
REMARK INTER:                 -14.535
REMARK INTRA:                  -1.555
REMARK CONF_INDEPENDENT:        2.088
REMARK UNBOUND:                -1.555
REMARK SMILES Cc1cn(-c2cc(NC(=O)c3ccc(C)c(Nc4nccc(-c5cccnc5)n4)c3)cc(C(F)(F)F)c2)cn1
REMARK SMILES IDX 11 1 12 2 13 3 14 4 15 5 16 6 30 7 9 8 10 9 8 10 7 12 6 13
REMARK SMILES IDX 31 14 5 15 32 16 37 17 4 18 3 19 38 20 2 21 39 22 1 23 33 24
REMARK SMILES IDX 34 25 35 26 36 27 17 28 18 30 19 31 29 32 20 33 22 34 21 35
REMARK SMILES IDX 23 36 24 37 28 38 25 39 27 40 26 41
REMARK H PARENT 8 11 17 29
ROOT
ATOM      1  C   UNL     1      27.680   1.616  53.008  1.00  0.00     0.042 A 
ATOM      2  C   UNL     1      27.371   0.987  54.223  1.00  0.00     0.014 A 
ATOM      3  C   UNL     1      28.081  -0.129  54.666  1.00  0.00     0.006 A 
ATOM      4  C   UNL     1      29.066  -0.711  53.883  1.00  0.00    -0.027 A 
ATOM      5  C   UNL     1      29.828  -1.933  54.375  1.00  0.00     0.046 C 
ATOM      6  C   UNL     1      29.307  -0.153  52.629  1.00  0.00     0.045 A 
ATOM      7  C   UNL     1      28.600   0.983  52.214  1.00  0.00     0.040 A 
ENDROOT
BRANCH   1   8
ATOM      8  C   UNL     1      26.903   2.717  52.406  1.00  0.00     0.255 C 
ATOM      9  O   UNL     1      27.116   2.923  51.236  1.00  0.00    -0.269 OA
ATOM     10  N   UNL     1      25.883   3.191  53.138  1.00  0.00    -0.322 N 
ATOM     11  H   UNL     1      25.764   2.799  54.083  1.00  0.00     0.170 HD
BRANCH  10  12
ATOM     12  C   UNL     1      24.974   4.162  52.738  1.00  0.00     0.044 A 
ATOM     13  C   UNL     1      24.071   4.738  53.666  1.00  0.00     0.052 A 
ATOM     14  C   UNL     1      24.846   4.508  51.375  1.00  0.00     0.039 A 
ATOM     15  C   UNL     1      23.159   5.723  53.275  1.00  0.00     0.049 A 
ATOM     16  C   UNL     1      23.932   5.527  50.983  1.00  0.00     0.060 A 
ATOM     17  C   UNL     1      23.081   6.091  51.936  1.00  0.00     0.039 A 
BRANCH  15  18
ATOM     18  N   UNL     1      22.290   6.330  54.194  1.00  0.00    -0.306 N 
ATOM     19  C   UNL     1      22.273   6.227  55.584  1.00  0.00     0.116 A 
ATOM     20  C   UNL     1      21.217   7.077  53.909  1.00  0.00     0.204 A 
ATOM     21  C   UNL     1      21.207   6.915  56.046  1.00  0.00     0.056 A 
ATOM     22  N   UNL     1      20.577   7.467  54.984  1.00  0.00    -0.242 NA
ATOM     23  C   UNL     1      20.778   7.112  57.480  1.00  0.00     0.068 C 
ENDBRANCH  15  18
BRANCH  16  24
ATOM     24  C   UNL     1      23.861   5.917  49.542  1.00  0.00     0.416 C 
ATOM     25  F   UNL     1      24.031   7.231  49.299  1.00  0.00    -0.166 F 
ATOM     26  F   UNL     1      24.859   5.378  48.852  1.00  0.00    -0.166 F 
ATOM     27  F   UNL     1      22.655   5.651  48.998  1.00  0.00    -0.166 F 
ENDBRANCH  16  24
ENDBRANCH  10  12
ENDBRANCH   1   8
BRANCH   6  28
ATOM     28  N   UNL     1      30.403  -0.620  51.891  1.00  0.00    -0.324 N 
ATOM     29  H   UNL     1      30.287  -1.396  51.224  1.00  0.00     0.170 HD
BRANCH  28  30
ATOM     30  C   UNL     1      31.653  -0.025  52.068  1.00  0.00     0.227 A 
ATOM     31  N   UNL     1      32.798  -0.294  51.452  1.00  0.00    -0.221 NA
ATOM     32  N   UNL     1      31.542   0.874  53.079  1.00  0.00    -0.213 NA
ATOM     33  C   UNL     1      33.877   0.407  51.848  1.00  0.00     0.117 A 
ATOM     34  C   UNL     1      32.649   1.523  53.459  1.00  0.00     0.077 A 
ATOM     35  C   UNL     1      33.834   1.297  52.851  1.00  0.00     0.049 A 
BRANCH  34  36
ATOM     36  C   UNL     1      32.468   2.521  54.545  1.00  0.00     0.019 A 
ATOM     37  C   UNL     1      33.357   3.595  54.713  1.00  0.00     0.013 A 
ATOM     38  C   UNL     1      31.397   2.405  55.453  1.00  0.00     0.121 A 
ATOM     39  C   UNL     1      33.153   4.483  55.762  1.00  0.00     0.021 A 
ATOM     40  N   UNL     1      31.199   3.253  56.470  1.00  0.00    -0.264 NA
ATOM     41  C   UNL     1      32.050   4.285  56.592  1.00  0.00     0.111 A 
ENDBRANCH  34  36
ENDBRANCH  28  30
ENDBRANCH   6  28
TORSDOF 7
ENDMDL
MODEL 4
REMARK VINA RESULT:   -12.383      1.330      1.933
REMARK INTER + INTRA:         -15.859
REMARK INTER:                 -14.471
REMARK INTRA:                  -1.388
REMARK CONF_INDEPENDENT:        2.088
REMARK UNBOUND:                -1.388
REMARK SMILES Cc1cn(-c2cc(NC(=O)c3ccc(C)c(Nc4nccc(-c5cccnc5)n4)c3)cc(C(F)(F)F)c2)cn1
REMARK SMILES IDX 11 1 12 2 13 3 14 4 15 5 16 6 30 7 9 8 10 9 8 10 7 12 6 13
REMARK SMILES IDX 31 14 5 15 32 16 37 17 4 18 3 19 38 20 2 21 39 22 1 23 33 24
REMARK SMILES IDX 34 25 35 26 36 27 17 28 18 30 19 31 29 32 20 33 22 34 21 35
REMARK SMILES IDX 23 36 24 37 28 38 25 39 27 40 26 41
REMARK H PARENT 8 11 17 29
ROOT
ATOM      1  C   UNL     1      28.117   1.950  53.103  1.00  0.00     0.042 A 
ATOM      2  C   UNL     1      27.738   0.649  53.465  1.00  0.00     0.014 A 
ATOM      3  C   UNL     1      28.626  -0.215  54.108  1.00  0.00     0.006 A 
ATOM      4  C   UNL     1      29.942   0.150  54.339  1.00  0.00    -0.027 A 
ATOM      5  C   UNL     1      30.902  -0.805  55.034  1.00  0.00     0.046 C 
ATOM      6  C   UNL     1      30.354   1.403  53.888  1.00  0.00     0.045 A 
ATOM      7  C   UNL     1      29.441   2.265  53.268  1.00  0.00     0.040 A 
ENDROOT
BRANCH   1   8
ATOM      8  C   UNL     1      27.288   2.881  52.311  1.00  0.00     0.255 C 
ATOM      9  O   UNL     1      27.572   2.960  51.141  1.00  0.00    -0.269 OA
ATOM     10  N   UNL     1      26.174   3.333  52.906  1.00  0.00    -0.322 N 
ATOM     11  H   UNL     1      26.020   3.052  53.885  1.00  0.00     0.170 HD
BRANCH  10  12
ATOM     12  C   UNL     1      25.211   4.147  52.323  1.00  0.00     0.044 A 
ATOM     13  C   UNL     1      24.255   4.826  53.119  1.00  0.00     0.052 A 
ATOM     14  C   UNL     1      25.087   4.220  50.919  1.00  0.00     0.039 A 
ATOM     15  C   UNL     1      23.288   5.655  52.542  1.00  0.00     0.049 A 
ATOM     16  C   UNL     1      24.116   5.082  50.334  1.00  0.00     0.060 A 
ATOM     17  C   UNL     1      23.212   5.757  51.157  1.00  0.00     0.039 A 
BRANCH  15  18
ATOM     18  N   UNL     1      22.364   6.364  53.323  1.00  0.00    -0.306 N 
ATOM     19  C   UNL     1      21.806   7.621  53.094  1.00  0.00     0.116 A 
ATOM     20  C   UNL     1      21.888   6.009  54.523  1.00  0.00     0.204 A 
ATOM     21  C   UNL     1      21.033   7.939  54.155  1.00  0.00     0.056 A 
ATOM     22  N   UNL     1      21.072   6.904  55.023  1.00  0.00    -0.242 NA
ATOM     23  C   UNL     1      20.208   9.187  54.363  1.00  0.00     0.068 C 
ENDBRANCH  15  18
BRANCH  16  24
ATOM     24  C   UNL     1      24.047   5.186  48.845  1.00  0.00     0.416 C 
ATOM     25  F   UNL     1      24.572   6.314  48.328  1.00  0.00    -0.166 F 
ATOM     26  F   UNL     1      24.788   4.248  48.266  1.00  0.00    -0.166 F 
ATOM     27  F   UNL     1      22.777   5.194  48.390  1.00  0.00    -0.166 F 
ENDBRANCH  16  24
ENDBRANCH  10  12
ENDBRANCH   1   8
BRANCH   6  28
ATOM     28  N   UNL     1      31.628   1.857  54.253  1.00  0.00    -0.324 N 
ATOM     29  H   UNL     1      31.731   2.627  54.929  1.00  0.00     0.170 HD
BRANCH  28  30
ATOM     30  C   UNL     1      32.757   1.258  53.692  1.00  0.00     0.227 A 
ATOM     31  N   UNL     1      34.024   1.343  54.079  1.00  0.00    -0.221 NA
ATOM     32  N   UNL     1      32.360   0.593  52.577  1.00  0.00    -0.213 NA
ATOM     33  C   UNL     1      34.932   0.693  53.326  1.00  0.00     0.117 A 
ATOM     34  C   UNL     1      33.302  -0.011  51.843  1.00  0.00     0.077 A 
ATOM     35  C   UNL     1      34.602   0.032  52.206  1.00  0.00     0.049 A 
BRANCH  34  36
ATOM     36  C   UNL     1      32.812  -0.754  50.653  1.00  0.00     0.019 A 
ATOM     37  C   UNL     1      31.440  -0.928  50.408  1.00  0.00     0.013 A 
ATOM     38  C   UNL     1      33.722  -1.320  49.739  1.00  0.00     0.121 A 
ATOM     39  C   UNL     1      31.041  -1.653  49.293  1.00  0.00     0.021 A 
ATOM     40  N   UNL     1      33.343  -2.027  48.667  1.00  0.00    -0.264 NA
ATOM     41  C   UNL     1      32.025  -2.157  48.443  1.00  0.00     0.111 A 
ENDBRANCH  34  36
ENDBRANCH  28  30
ENDBRANCH   6  28
TORSDOF 7
ENDMDL
MODEL 5
REMARK VINA RESULT:   -11.552      3.771     11.806
REMARK INTER + INTRA:         -14.806
REMARK INTER:                 -13.640
REMARK INTRA:                  -1.167
REMARK CONF_INDEPENDENT:        2.088
REMARK UNBOUND:                -1.167
REMARK SMILES Cc1cn(-c2cc(NC(=O)c3ccc(C)c(Nc4nccc(-c5cccnc5)n4)c3)cc(C(F)(F)F)c2)cn1
REMARK SMILES IDX 11 1 12 2 13 3 14 4 15 5 16 6 30 7 9 8 10 9 8 10 7 12 6 13
REMARK SMILES IDX 31 14 5 15 32 16 37 17 4 18 3 19 38 20 2 21 39 22 1 23 33 24
REMARK SMILES IDX 34 25 35 26 36 27 17 28 18 30 19 31 29 32 20 33 22 34 21 35
REMARK SMILES IDX 23 36 24 37 28 38 25 39 27 40 26 41
REMARK H PARENT 8 11 17 29
ROOT
ATOM      1  C   UNL     1      25.916   3.854  52.001  1.00  0.00     0.042 A 
ATOM      2  C   UNL     1      25.278   4.315  50.839  1.00  0.00     0.014 A 
ATOM      3  C   UNL     1      24.160   5.148  50.906  1.00  0.00     0.006 A 
ATOM      4  C   UNL     1      23.586   5.483  52.121  1.00  0.00    -0.027 A 
ATOM      5  C   UNL     1      22.361   6.386  52.179  1.00  0.00     0.046 C 
ATOM      6  C   UNL     1      24.152   4.943  53.275  1.00  0.00     0.045 A 
ATOM      7  C   UNL     1      25.290   4.130  53.188  1.00  0.00     0.040 A 
ENDROOT
BRANCH   1   8
ATOM      8  C   UNL     1      27.020   2.874  52.024  1.00  0.00     0.255 C 
ATOM      9  O   UNL     1      27.710   2.847  51.035  1.00  0.00    -0.269 OA
ATOM     10  N   UNL     1      27.287   2.312  53.213  1.00  0.00    -0.322 N 
ATOM     11  H   UNL     1      26.664   2.556  53.996  1.00  0.00     0.170 HD
BRANCH  10  12
ATOM     12  C   UNL     1      28.327   1.432  53.484  1.00  0.00     0.044 A 
ATOM     13  C   UNL     1      29.630   1.669  52.980  1.00  0.00     0.052 A 
ATOM     14  C   UNL     1      28.082   0.220  54.166  1.00  0.00     0.039 A 
ATOM     15  C   UNL     1      30.685   0.795  53.256  1.00  0.00     0.049 A 
ATOM     16  C   UNL     1      29.163  -0.659  54.464  1.00  0.00     0.060 A 
ATOM     17  C   UNL     1      30.439  -0.371  53.974  1.00  0.00     0.039 A 
BRANCH  15  18
ATOM     18  N   UNL     1      31.988   1.042  52.798  1.00  0.00    -0.306 N 
ATOM     19  C   UNL     1      32.611   0.581  51.639  1.00  0.00     0.116 A 
ATOM     20  C   UNL     1      32.949   1.714  53.442  1.00  0.00     0.204 A 
ATOM     21  C   UNL     1      33.894   1.003  51.654  1.00  0.00     0.056 A 
ATOM     22  N   UNL     1      34.077   1.737  52.774  1.00  0.00    -0.242 NA
ATOM     23  C   UNL     1      34.959   0.773  50.610  1.00  0.00     0.068 C 
ENDBRANCH  15  18
BRANCH  16  24
ATOM     24  C   UNL     1      28.885  -1.905  55.240  1.00  0.00     0.416 C 
ATOM     25  F   UNL     1      28.054  -2.778  54.636  1.00  0.00    -0.166 F 
ATOM     26  F   UNL     1      29.988  -2.631  55.386  1.00  0.00    -0.166 F 
ATOM     27  F   UNL     1      28.274  -1.653  56.416  1.00  0.00    -0.166 F 
ENDBRANCH  16  24
ENDBRANCH  10  12
ENDBRANCH   1   8
BRANCH   6  28
ATOM     28  N   UNL     1      23.692   5.396  54.518  1.00  0.00    -0.324 N 
ATOM     29  H   UNL     1      22.759   5.124  54.857  1.00  0.00     0.170 HD
BRANCH  28  30
ATOM     30  C   UNL     1      24.510   6.218  55.295  1.00  0.00     0.227 A 
ATOM     31  N   UNL     1      25.794   6.512  55.129  1.00  0.00    -0.221 NA
ATOM     32  N   UNL     1      23.778   6.642  56.357  1.00  0.00    -0.213 NA
ATOM     33  C   UNL     1      26.359   7.305  56.059  1.00  0.00     0.117 A 
ATOM     34  C   UNL     1      24.392   7.402  57.272  1.00  0.00     0.077 A 
ATOM     35  C   UNL     1      25.691   7.743  57.138  1.00  0.00     0.049 A 
BRANCH  34  36
ATOM     36  C   UNL     1      23.539   7.869  58.396  1.00  0.00     0.019 A 
ATOM     37  C   UNL     1      23.919   8.948  59.209  1.00  0.00     0.013 A 
ATOM     38  C   UNL     1      22.321   7.223  58.686  1.00  0.00     0.121 A 
ATOM     39  C   UNL     1      23.094   9.325  60.261  1.00  0.00     0.021 A 
ATOM     40  N   UNL     1      21.525   7.576  59.704  1.00  0.00    -0.264 NA
ATOM     41  C   UNL     1      21.901   8.628  60.449  1.00  0.00     0.111 A 
ENDBRANCH  34  36
ENDBRANCH  28  30
ENDBRANCH   6  28
TORSDOF 7
ENDMDL
MODEL 6
REMARK VINA RESULT:   -11.543      4.185     11.169
REMARK INTER + INTRA:         -14.814
REMARK INTER:                 -13.632
REMARK INTRA:                  -1.182
REMARK CONF_INDEPENDENT:        2.088
REMARK UNBOUND:                -1.182
REMARK SMILES Cc1cn(-c2cc(NC(=O)c3ccc(C)c(Nc4nccc(-c5cccnc5)n4)c3)cc(C(F)(F)F)c2)cn1
REMARK SMILES IDX 11 1 12 2 13 3 14 4 15 5 16 6 30 7 9 8 10 9 8 10 7 12 6 13
REMARK SMILES IDX 31 14 5 15 32 16 37 17 4 18 3 19 38 20 2 21 39 22 1 23 33 24
REMARK SMILES IDX 34 25 35 26 36 27 17 28 18 30 19 31 29 32 20 33 22 34 21 35
REMARK SMILES IDX 23 36 24 37 28 38 25 39 27 40 26 41
REMARK H PARENT 8 11 17 29
ROOT
ATOM      1  C   UNL     1      25.879   3.878  52.079  1.00  0.00     0.042 A 
ATOM      2  C   UNL     1      25.262   4.370  50.919  1.00  0.00     0.014 A 
ATOM      3  C   UNL     1      24.144   5.202  50.987  1.00  0.00     0.006 A 
ATOM      4  C   UNL     1      23.549   5.508  52.201  1.00  0.00    -0.027 A 
ATOM      5  C   UNL     1      22.325   6.411  52.259  1.00  0.00     0.046 C 
ATOM      6  C   UNL     1      24.095   4.938  53.350  1.00  0.00     0.045 A 
ATOM      7  C   UNL     1      25.232   4.125  53.262  1.00  0.00     0.040 A 
ENDROOT
BRANCH   1   8
ATOM      8  C   UNL     1      26.980   2.895  52.097  1.00  0.00     0.255 C 
ATOM      9  O   UNL     1      27.679   2.883  51.113  1.00  0.00    -0.269 OA
ATOM     10  N   UNL     1      27.236   2.315  53.279  1.00  0.00    -0.322 N 
ATOM     11  H   UNL     1      26.607   2.547  54.060  1.00  0.00     0.170 HD
BRANCH  10  12
ATOM     12  C   UNL     1      28.272   1.429  53.545  1.00  0.00     0.044 A 
ATOM     13  C   UNL     1      29.575   1.658  53.036  1.00  0.00     0.052 A 
ATOM     14  C   UNL     1      28.024   0.218  54.228  1.00  0.00     0.039 A 
ATOM     15  C   UNL     1      30.626   0.778  53.307  1.00  0.00     0.049 A 
ATOM     16  C   UNL     1      29.100  -0.667  54.522  1.00  0.00     0.060 A 
ATOM     17  C   UNL     1      30.376  -0.387  54.026  1.00  0.00     0.039 A 
BRANCH  15  18
ATOM     18  N   UNL     1      31.928   1.018  52.843  1.00  0.00    -0.306 N 
ATOM     19  C   UNL     1      32.526   0.597  51.657  1.00  0.00     0.116 A 
ATOM     20  C   UNL     1      32.912   1.638  53.504  1.00  0.00     0.204 A 
ATOM     21  C   UNL     1      33.818   0.990  51.673  1.00  0.00     0.056 A 
ATOM     22  N   UNL     1      34.032   1.668  52.823  1.00  0.00    -0.242 NA
ATOM     23  C   UNL     1      34.865   0.785  50.605  1.00  0.00     0.068 C 
ENDBRANCH  15  18
BRANCH  16  24
ATOM     24  C   UNL     1      28.819  -1.912  55.298  1.00  0.00     0.416 C 
ATOM     25  F   UNL     1      27.931  -2.751  54.727  1.00  0.00    -0.166 F 
ATOM     26  F   UNL     1      29.902  -2.676  55.384  1.00  0.00    -0.166 F 
ATOM     27  F   UNL     1      28.275  -1.653  56.505  1.00  0.00    -0.166 F 
ENDBRANCH  16  24
ENDBRANCH  10  12
ENDBRANCH   1   8
BRANCH   6  28
ATOM     28  N   UNL     1      23.614   5.360  54.596  1.00  0.00    -0.324 N 
ATOM     29  H   UNL     1      22.901   4.806  55.092  1.00  0.00     0.170 HD
BRANCH  28  30
ATOM     30  C   UNL     1      24.110   6.536  55.161  1.00  0.00     0.227 A 
ATOM     31  N   UNL     1      24.162   7.754  54.636  1.00  0.00    -0.221 NA
ATOM     32  N   UNL     1      24.634   6.222  56.373  1.00  0.00    -0.213 NA
ATOM     33  C   UNL     1      24.737   8.713  55.387  1.00  0.00     0.117 A 
ATOM     34  C   UNL     1      25.224   7.201  57.069  1.00  0.00     0.077 A 
ATOM     35  C   UNL     1      25.286   8.461  56.585  1.00  0.00     0.049 A 
BRANCH  34  36
ATOM     36  C   UNL     1      25.750   6.814  58.404  1.00  0.00     0.019 A 
ATOM     37  C   UNL     1      24.899   6.386  59.435  1.00  0.00     0.013 A 
ATOM     38  C   UNL     1      27.131   6.882  58.675  1.00  0.00     0.121 A 
ATOM     39  C   UNL     1      25.444   6.061  60.670  1.00  0.00     0.021 A 
ATOM     40  N   UNL     1      27.662   6.577  59.866  1.00  0.00    -0.264 NA
ATOM     41  C   UNL     1      26.827   6.147  60.826  1.00  0.00     0.111 A 
ENDBRANCH  34  36
ENDBRANCH  28  30
ENDBRANCH   6  28
TORSDOF 7
ENDMDL
MODEL 7
REMARK VINA RESULT:   -11.484      2.091      3.143
REMARK INTER + INTRA:         -14.901
REMARK INTER:                 -13.572
REMARK INTRA:                  -1.329
REMARK CONF_INDEPENDENT:        2.088
REMARK UNBOUND:                -1.329
REMARK SMILES Cc1cn(-c2cc(NC(=O)c3ccc(C)c(Nc4nccc(-c5cccnc5)n4)c3)cc(C(F)(F)F)c2)cn1
REMARK SMILES IDX 11 1 12 2 13 3 14 4 15 5 16 6 30 7 9 8 10 9 8 10 7 12 6 13
REMARK SMILES IDX 31 14 5 15 32 16 37 17 4 18 3 19 38 20 2 21 39 22 1 23 33 24
REMARK SMILES IDX 34 25 35 26 36 27 17 28 18 30 19 31 29 32 20 33 22 34 21 35
REMARK SMILES IDX 23 36 24 37 28 38 25 39 27 40 26 41
REMARK H PARENT 8 11 17 29
ROOT
ATOM      1  C   UNL     1      26.976   2.399  52.398  1.00  0.00     0.042 A 
ATOM      2  C   UNL     1      27.132   1.027  52.152  1.00  0.00     0.014 A 
ATOM      3  C   UNL     1      27.907   0.222  52.988  1.00  0.00     0.006 A 
ATOM      4  C   UNL     1      28.620   0.762  54.046  1.00  0.00    -0.027 A 
ATOM      5  C   UNL     1      29.468  -0.127  54.945  1.00  0.00     0.046 C 
ATOM      6  C   UNL     1      28.552   2.142  54.233  1.00  0.00     0.045 A 
ATOM      7  C   UNL     1      27.748   2.928  53.398  1.00  0.00     0.040 A 
ENDROOT
BRANCH   1   8
ATOM      8  C   UNL     1      26.283   3.343  51.499  1.00  0.00     0.255 C 
ATOM      9  O   UNL     1      26.535   3.222  50.326  1.00  0.00    -0.269 OA
ATOM     10  N   UNL     1      25.279   4.048  52.043  1.00  0.00    -0.322 N 
ATOM     11  H   UNL     1      25.114   3.926  53.052  1.00  0.00     0.170 HD
BRANCH  10  12
ATOM     12  C   UNL     1      24.441   4.928  51.369  1.00  0.00     0.044 A 
ATOM     13  C   UNL     1      23.815   6.001  52.049  1.00  0.00     0.052 A 
ATOM     14  C   UNL     1      24.099   4.700  50.017  1.00  0.00     0.039 A 
ATOM     15  C   UNL     1      22.978   6.897  51.377  1.00  0.00     0.049 A 
ATOM     16  C   UNL     1      23.265   5.627  49.329  1.00  0.00     0.060 A 
ATOM     17  C   UNL     1      22.692   6.690  50.032  1.00  0.00     0.039 A 
BRANCH  15  18
ATOM     18  N   UNL     1      22.387   7.988  52.033  1.00  0.00    -0.306 N 
ATOM     19  C   UNL     1      21.548   7.991  53.145  1.00  0.00     0.116 A 
ATOM     20  C   UNL     1      22.438   9.271  51.657  1.00  0.00     0.204 A 
ATOM     21  C   UNL     1      21.152   9.262  53.372  1.00  0.00     0.056 A 
ATOM     22  N   UNL     1      21.746  10.053  52.450  1.00  0.00    -0.242 NA
ATOM     23  C   UNL     1      20.256   9.774  54.474  1.00  0.00     0.068 C 
ENDBRANCH  15  18
BRANCH  16  24
ATOM     24  C   UNL     1      22.968   5.395  47.883  1.00  0.00     0.416 C 
ATOM     25  F   UNL     1      22.841   4.101  47.529  1.00  0.00    -0.166 F 
ATOM     26  F   UNL     1      21.780   5.888  47.555  1.00  0.00    -0.166 F 
ATOM     27  F   UNL     1      23.953   5.845  47.079  1.00  0.00    -0.166 F 
ENDBRANCH  16  24
ENDBRANCH  10  12
ENDBRANCH   1   8
BRANCH   6  28
ATOM     28  N   UNL     1      29.130   2.687  55.387  1.00  0.00    -0.324 N 
ATOM     29  H   UNL     1      28.550   2.881  56.216  1.00  0.00     0.170 HD
BRANCH  28  30
ATOM     30  C   UNL     1      30.498   2.966  55.405  1.00  0.00     0.227 A 
ATOM     31  N   UNL     1      31.154   3.868  56.123  1.00  0.00    -0.221 NA
ATOM     32  N   UNL     1      31.089   2.184  54.465  1.00  0.00    -0.213 NA
ATOM     33  C   UNL     1      32.481   3.960  55.912  1.00  0.00     0.117 A 
ATOM     34  C   UNL     1      32.404   2.334  54.269  1.00  0.00     0.077 A 
ATOM     35  C   UNL     1      33.120   3.226  54.988  1.00  0.00     0.049 A 
BRANCH  34  36
ATOM     36  C   UNL     1      33.010   1.431  53.256  1.00  0.00     0.019 A 
ATOM     37  C   UNL     1      32.218   0.635  52.413  1.00  0.00     0.013 A 
ATOM     38  C   UNL     1      34.410   1.340  53.125  1.00  0.00     0.121 A 
ATOM     39  C   UNL     1      32.840  -0.210  51.502  1.00  0.00     0.021 A 
ATOM     40  N   UNL     1      35.015   0.522  52.254  1.00  0.00    -0.264 NA
ATOM     41  C   UNL     1      34.233  -0.209  51.443  1.00  0.00     0.111 A 
ENDBRANCH  34  36
ENDBRANCH  28  30
ENDBRANCH   6  28
TORSDOF 7
ENDMDL
MODEL 8
REMARK VINA RESULT:   -11.362      4.214     10.595
REMARK INTER + INTRA:         -14.734
REMARK INTER:                 -13.450
REMARK INTRA:                  -1.284
REMARK CONF_INDEPENDENT:        2.088
REMARK UNBOUND:                -1.284
REMARK SMILES Cc1cn(-c2cc(NC(=O)c3ccc(C)c(Nc4nccc(-c5cccnc5)n4)c3)cc(C(F)(F)F)c2)cn1
REMARK SMILES IDX 11 1 12 2 13 3 14 4 15 5 16 6 30 7 9 8 10 9 8 10 7 12 6 13
REMARK SMILES IDX 31 14 5 15 32 16 37 17 4 18 3 19 38 20 2 21 39 22 1 23 33 24
REMARK SMILES IDX 34 25 35 26 36 27 17 28 18 30 19 31 29 32 20 33 22 34 21 35
REMARK SMILES IDX 23 36 24 37 28 38 25 39 27 40 26 41
REMARK H PARENT 8 11 17 29
ROOT
ATOM      1  C   UNL     1      25.851   4.107  52.927  1.00  0.00     0.042 A 
ATOM      2  C   UNL     1      25.673   4.968  54.020  1.00  0.00     0.014 A 
ATOM      3  C   UNL     1      24.660   5.927  54.033  1.00  0.00     0.006 A 
ATOM      4  C   UNL     1      23.842   6.122  52.932  1.00  0.00    -0.027 A 
ATOM      5  C   UNL     1      22.745   7.177  52.958  1.00  0.00     0.046 C 
ATOM      6  C   UNL     1      24.080   5.340  51.803  1.00  0.00     0.045 A 
ATOM      7  C   UNL     1      25.086   4.366  51.819  1.00  0.00     0.040 A 
ENDROOT
BRANCH   1   8
ATOM      8  C   UNL     1      26.969   3.155  52.776  1.00  0.00     0.255 C 
ATOM      9  O   UNL     1      27.679   3.337  51.816  1.00  0.00    -0.269 OA
ATOM     10  N   UNL     1      27.223   2.367  53.831  1.00  0.00    -0.322 N 
ATOM     11  H   UNL     1      26.581   2.440  54.634  1.00  0.00     0.170 HD
BRANCH  10  12
ATOM     12  C   UNL     1      28.271   1.462  53.941  1.00  0.00     0.044 A 
ATOM     13  C   UNL     1      29.540   1.748  53.379  1.00  0.00     0.052 A 
ATOM     14  C   UNL     1      28.062   0.187  54.510  1.00  0.00     0.039 A 
ATOM     15  C   UNL     1      30.603   0.848  53.493  1.00  0.00     0.049 A 
ATOM     16  C   UNL     1      29.152  -0.719  54.645  1.00  0.00     0.060 A 
ATOM     17  C   UNL     1      30.395  -0.385  54.103  1.00  0.00     0.039 A 
BRANCH  15  18
ATOM     18  N   UNL     1      31.875   1.139  52.977  1.00  0.00    -0.306 N 
ATOM     19  C   UNL     1      32.516   0.591  51.868  1.00  0.00     0.116 A 
ATOM     20  C   UNL     1      32.788   1.958  53.512  1.00  0.00     0.204 A 
ATOM     21  C   UNL     1      33.762   1.111  51.801  1.00  0.00     0.056 A 
ATOM     22  N   UNL     1      33.901   1.988  52.819  1.00  0.00    -0.242 NA
ATOM     23  C   UNL     1      34.827   0.839  50.766  1.00  0.00     0.068 C 
ENDBRANCH  15  18
BRANCH  16  24
ATOM     24  C   UNL     1      28.916  -2.039  55.306  1.00  0.00     0.416 C 
ATOM     25  F   UNL     1      28.092  -2.871  54.638  1.00  0.00    -0.166 F 
ATOM     26  F   UNL     1      30.036  -2.749  55.365  1.00  0.00    -0.166 F 
ATOM     27  F   UNL     1      28.323  -1.910  56.510  1.00  0.00    -0.166 F 
ENDBRANCH  16  24
ENDBRANCH  10  12
ENDBRANCH   1   8
BRANCH   6  28
ATOM     28  N   UNL     1      23.168   5.405  50.742  1.00  0.00    -0.324 N 
ATOM     29  H   UNL     1      22.302   5.956  50.835  1.00  0.00     0.170 HD
BRANCH  28  30
ATOM     30  C   UNL     1      23.441   4.717  49.559  1.00  0.00     0.227 A 
ATOM     31  N   UNL     1      24.061   5.150  48.468  1.00  0.00    -0.221 NA
ATOM     32  N   UNL     1      22.877   3.486  49.659  1.00  0.00    -0.213 NA
ATOM     33  C   UNL     1      24.153   4.285  47.441  1.00  0.00     0.117 A 
ATOM     34  C   UNL     1      22.967   2.673  48.600  1.00  0.00     0.077 A 
ATOM     35  C   UNL     1      23.604   3.061  47.474  1.00  0.00     0.049 A 
BRANCH  34  36
ATOM     36  C   UNL     1      22.365   1.325  48.772  1.00  0.00     0.019 A 
ATOM     37  C   UNL     1      22.253   0.726  50.037  1.00  0.00     0.013 A 
ATOM     38  C   UNL     1      21.901   0.600  47.657  1.00  0.00     0.121 A 
ATOM     39  C   UNL     1      21.705  -0.547  50.135  1.00  0.00     0.021 A 
ATOM     40  N   UNL     1      21.380  -0.630  47.744  1.00  0.00    -0.264 NA
ATOM     41  C   UNL     1      21.261  -1.169  48.969  1.00  0.00     0.111 A 
ENDBRANCH  34  36
ENDBRANCH  28  30
ENDBRANCH   6  28
TORSDOF 7
ENDMDL
MODEL 9
REMARK VINA RESULT:   -11.128      4.527      7.963
REMARK INTER + INTRA:         -14.273
REMARK INTER:                 -13.216
REMARK INTRA:                  -1.056
REMARK CONF_INDEPENDENT:        2.088
REMARK UNBOUND:                -1.056
REMARK SMILES Cc1cn(-c2cc(NC(=O)c3ccc(C)c(Nc4nccc(-c5cccnc5)n4)c3)cc(C(F)(F)F)c2)cn1
REMARK SMILES IDX 11 1 12 2 13 3 14 4 15 5 16 6 30 7 9 8 10 9 8 10 7 12 6 13
REMARK SMILES IDX 31 14 5 15 32 16 37 17 4 18 3 19 38 20 2 21 39 22 1 23 33 24
REMARK SMILES IDX 34 25 35 26 36 27 17 28 18 30 19 31 29 32 20 33 22 34 21 35
REMARK SMILES IDX 23 36 24 37 28 38 25 39 27 40 26 41
REMARK H PARENT 8 11 17 29
ROOT
ATOM      1  C   UNL     1      33.896  -0.653  50.835  1.00  0.00     0.042 A 
ATOM      2  C   UNL     1      33.896  -1.881  50.157  1.00  0.00     0.014 A 
ATOM      3  C   UNL     1      34.896  -2.204  49.237  1.00  0.00     0.006 A 
ATOM      4  C   UNL     1      35.880  -1.290  48.896  1.00  0.00    -0.027 A 
ATOM      5  C   UNL     1      36.959  -1.652  47.886  1.00  0.00     0.046 C 
ATOM      6  C   UNL     1      35.825  -0.030  49.490  1.00  0.00     0.045 A 
ATOM      7  C   UNL     1      34.829   0.265  50.429  1.00  0.00     0.040 A 
ENDROOT
BRANCH   1   8
ATOM      8  C   UNL     1      32.816  -0.181  51.723  1.00  0.00     0.255 C 
ATOM      9  O   UNL     1      33.027   0.866  52.285  1.00  0.00    -0.269 OA
ATOM     10  N   UNL     1      31.640  -0.818  51.616  1.00  0.00    -0.322 N 
ATOM     11  H   UNL     1      31.602  -1.625  50.977  1.00  0.00     0.170 HD
BRANCH  10  12
ATOM     12  C   UNL     1      30.470  -0.491  52.290  1.00  0.00     0.044 A 
ATOM     13  C   UNL     1      29.697   0.631  51.901  1.00  0.00     0.052 A 
ATOM     14  C   UNL     1      30.089  -1.197  53.451  1.00  0.00     0.039 A 
ATOM     15  C   UNL     1      28.513   0.963  52.565  1.00  0.00     0.049 A 
ATOM     16  C   UNL     1      28.871  -0.871  54.114  1.00  0.00     0.060 A 
ATOM     17  C   UNL     1      28.123   0.225  53.678  1.00  0.00     0.039 A 
BRANCH  15  18
ATOM     18  N   UNL     1      27.719   2.046  52.162  1.00  0.00    -0.306 N 
ATOM     19  C   UNL     1      26.771   2.758  52.895  1.00  0.00     0.116 A 
ATOM     20  C   UNL     1      27.643   2.570  50.933  1.00  0.00     0.204 A 
ATOM     21  C   UNL     1      26.193   3.661  52.073  1.00  0.00     0.056 A 
ATOM     22  N   UNL     1      26.775   3.549  50.858  1.00  0.00    -0.242 NA
ATOM     23  C   UNL     1      25.124   4.673  52.409  1.00  0.00     0.068 C 
ENDBRANCH  15  18
BRANCH  16  24
ATOM     24  C   UNL     1      28.461  -1.674  55.306  1.00  0.00     0.416 C 
ATOM     25  F   UNL     1      27.526  -2.614  55.065  1.00  0.00    -0.166 F 
ATOM     26  F   UNL     1      29.473  -2.403  55.761  1.00  0.00    -0.166 F 
ATOM     27  F   UNL     1      27.900  -0.913  56.268  1.00  0.00    -0.166 F 
ENDBRANCH  16  24
ENDBRANCH  10  12
ENDBRANCH   1   8
BRANCH   6  28
ATOM     28  N   UNL     1      36.896   0.850  49.286  1.00  0.00    -0.324 N 
ATOM     29  H   UNL     1      36.722   1.818  48.979  1.00  0.00     0.170 HD
BRANCH  28  30
ATOM     30  C   UNL     1      38.201   0.405  49.503  1.00  0.00     0.227 A 
ATOM     31  N   UNL     1      38.650  -0.443  50.420  1.00  0.00    -0.221 NA
ATOM     32  N   UNL     1      39.011   1.063  48.634  1.00  0.00    -0.213 NA
ATOM     33  C   UNL     1      39.978  -0.669  50.438  1.00  0.00     0.117 A 
ATOM     34  C   UNL     1      40.326   0.830  48.711  1.00  0.00     0.077 A 
ATOM     35  C   UNL     1      40.830  -0.037  49.615  1.00  0.00     0.049 A 
BRANCH  34  36
ATOM     36  C   UNL     1      41.165   1.548  47.716  1.00  0.00     0.019 A 
ATOM     37  C   UNL     1      40.660   1.921  46.461  1.00  0.00     0.013 A 
ATOM     38  C   UNL     1      42.507   1.863  48.006  1.00  0.00     0.121 A 
ATOM     39  C   UNL     1      41.497   2.568  45.561  1.00  0.00     0.021 A 
ATOM     40  N   UNL     1      43.322   2.479  47.140  1.00  0.00    -0.264 NA
ATOM     41  C   UNL     1      42.805   2.847  45.956  1.00  0.00     0.111 A 
ENDBRANCH  34  36
ENDBRANCH  28  30
ENDBRANCH   6  28
TORSDOF 7
ENDMDL
MODEL 10
REMARK VINA RESULT:   -11.100      1.715      2.534
REMARK INTER + INTRA:         -14.292
REMARK INTER:                 -13.188
REMARK INTRA:                  -1.104
REMARK CONF_INDEPENDENT:        2.088
REMARK UNBOUND:                -1.104
REMARK SMILES Cc1cn(-c2cc(NC(=O)c3ccc(C)c(Nc4nccc(-c5cccnc5)n4)c3)cc(C(F)(F)F)c2)cn1
REMARK SMILES IDX 11 1 12 2 13 3 14 4 15 5 16 6 30 7 9 8 10 9 8 10 7 12 6 13
REMARK SMILES IDX 31 14 5 15 32 16 37 17 4 18 3 19 38 20 2 21 39 22 1 23 33 24
REMARK SMILES IDX 34 25 35 26 36 27 17 28 18 30 19 31 29 32 20 33 22 34 21 35
REMARK SMILES IDX 23 36 24 37 28 38 25 39 27 40 26 41
REMARK H PARENT 8 11 17 29
ROOT
ATOM      1  C   UNL     1      26.976   2.451  52.518  1.00  0.00     0.042 A 
ATOM      2  C   UNL     1      27.074   1.356  51.646  1.00  0.00     0.014 A 
ATOM      3  C   UNL     1      28.003   0.337  51.860  1.00  0.00     0.006 A 
ATOM      4  C   UNL     1      28.920   0.406  52.896  1.00  0.00    -0.027 A 
ATOM      5  C   UNL     1      29.932  -0.709  53.114  1.00  0.00     0.046 C 
ATOM      6  C   UNL     1      28.896   1.542  53.705  1.00  0.00     0.045 A 
ATOM      7  C   UNL     1      27.940   2.542  53.489  1.00  0.00     0.040 A 
ENDROOT
BRANCH   1   8
ATOM      8  C   UNL     1      26.115   3.630  52.299  1.00  0.00     0.255 C 
ATOM      9  O   UNL     1      25.968   3.956  51.146  1.00  0.00    -0.269 OA
ATOM     10  N   UNL     1      25.402   4.046  53.355  1.00  0.00    -0.322 N 
ATOM     11  H   UNL     1      25.559   3.557  54.248  1.00  0.00     0.170 HD
BRANCH  10  12
ATOM     12  C   UNL     1      24.471   5.078  53.356  1.00  0.00     0.044 A 
ATOM     13  C   UNL     1      23.736   5.393  54.526  1.00  0.00     0.052 A 
ATOM     14  C   UNL     1      24.150   5.755  52.160  1.00  0.00     0.039 A 
ATOM     15  C   UNL     1      22.804   6.435  54.539  1.00  0.00     0.049 A 
ATOM     16  C   UNL     1      23.217   6.831  52.180  1.00  0.00     0.060 A 
ATOM     17  C   UNL     1      22.536   7.128  53.363  1.00  0.00     0.039 A 
BRANCH  15  18
ATOM     18  N   UNL     1      22.102   6.782  55.703  1.00  0.00    -0.306 N 
ATOM     19  C   UNL     1      22.602   7.154  56.949  1.00  0.00     0.116 A 
ATOM     20  C   UNL     1      20.776   6.737  55.882  1.00  0.00     0.204 A 
ATOM     21  C   UNL     1      21.558   7.313  57.792  1.00  0.00     0.056 A 
ATOM     22  N   UNL     1      20.423   7.079  57.097  1.00  0.00    -0.242 NA
ATOM     23  C   UNL     1      21.591   7.730  59.243  1.00  0.00     0.068 C 
ENDBRANCH  15  18
BRANCH  16  24
ATOM     24  C   UNL     1      22.940   7.571  50.912  1.00  0.00     0.416 C 
ATOM     25  F   UNL     1      24.034   7.914  50.202  1.00  0.00    -0.166 F 
ATOM     26  F   UNL     1      22.281   6.807  50.048  1.00  0.00    -0.166 F 
ATOM     27  F   UNL     1      22.325   8.751  51.130  1.00  0.00    -0.166 F 
ENDBRANCH  16  24
ENDBRANCH  10  12
ENDBRANCH   1   8
BRANCH   6  28
ATOM     28  N   UNL     1      29.700   1.560  54.852  1.00  0.00    -0.324 N 
ATOM     29  H   UNL     1      29.328   1.227  55.752  1.00  0.00     0.170 HD
BRANCH  28  30
ATOM     30  C   UNL     1      31.011   2.035  54.764  1.00  0.00     0.227 A 
ATOM     31  N   UNL     1      31.589   3.015  55.446  1.00  0.00    -0.221 NA
ATOM     32  N   UNL     1      31.628   1.356  53.762  1.00  0.00    -0.213 NA
ATOM     33  C   UNL     1      32.866   3.301  55.130  1.00  0.00     0.117 A 
ATOM     34  C   UNL     1      32.886   1.697  53.463  1.00  0.00     0.077 A 
ATOM     35  C   UNL     1      33.524   2.676  54.141  1.00  0.00     0.049 A 
BRANCH  34  36
ATOM     36  C   UNL     1      33.529   0.902  52.385  1.00  0.00     0.019 A 
ATOM     37  C   UNL     1      34.910   0.971  52.143  1.00  0.00     0.013 A 
ATOM     38  C   UNL     1      32.756   0.061  51.559  1.00  0.00     0.121 A 
ATOM     39  C   UNL     1      35.451   0.224  51.104  1.00  0.00     0.021 A 
ATOM     40  N   UNL     1      33.272  -0.655  50.552  1.00  0.00    -0.264 NA
ATOM     41  C   UNL     1      34.599  -0.590  50.359  1.00  0.00     0.111 A 
ENDBRANCH  34  36
ENDBRANCH  28  30
ENDBRANCH   6  28
TORSDOF 7
ENDMDL
MODEL 11
REMARK VINA RESULT:   -11.017      3.950     11.707
REMARK INTER + INTRA:         -14.204
REMARK INTER:                 -13.105
REMARK INTRA:                  -1.099
REMARK CONF_INDEPENDENT:        2.088
REMARK UNBOUND:                -1.099
REMARK SMILES Cc1cn(-c2cc(NC(=O)c3ccc(C)c(Nc4nccc(-c5cccnc5)n4)c3)cc(C(F)(F)F)c2)cn1
REMARK SMILES IDX 11 1 12 2 13 3 14 4 15 5 16 6 30 7 9 8 10 9 8 10 7 12 6 13
REMARK SMILES IDX 31 14 5 15 32 16 37 17 4 18 3 19 38 20 2 21 39 22 1 23 33 24
REMARK SMILES IDX 34 25 35 26 36 27 17 28 18 30 19 31 29 32 20 33 22 34 21 35
REMARK SMILES IDX 23 36 24 37 28 38 25 39 27 40 26 41
REMARK H PARENT 8 11 17 29
ROOT
ATOM      1  C   UNL     1      25.874   3.584  51.923  1.00  0.00     0.042 A 
ATOM      2  C   UNL     1      25.020   3.408  50.824  1.00  0.00     0.014 A 
ATOM      3  C   UNL     1      23.687   3.821  50.865  1.00  0.00     0.006 A 
ATOM      4  C   UNL     1      23.134   4.345  52.022  1.00  0.00    -0.027 A 
ATOM      5  C   UNL     1      21.677   4.785  52.055  1.00  0.00     0.046 C 
ATOM      6  C   UNL     1      23.949   4.427  53.150  1.00  0.00     0.045 A 
ATOM      7  C   UNL     1      25.291   4.030  53.080  1.00  0.00     0.040 A 
ENDROOT
BRANCH   1   8
ATOM      8  C   UNL     1      27.253   3.065  52.011  1.00  0.00     0.255 C 
ATOM      9  O   UNL     1      27.837   2.963  50.959  1.00  0.00    -0.269 OA
ATOM     10  N   UNL     1      27.786   3.006  53.240  1.00  0.00    -0.322 N 
ATOM     11  H   UNL     1      27.173   3.261  54.028  1.00  0.00     0.170 HD
BRANCH  10  12
ATOM     12  C   UNL     1      29.087   2.631  53.549  1.00  0.00     0.044 A 
ATOM     13  C   UNL     1      29.771   1.666  52.768  1.00  0.00     0.052 A 
ATOM     14  C   UNL     1      29.716   3.113  54.718  1.00  0.00     0.039 A 
ATOM     15  C   UNL     1      31.084   1.290  53.064  1.00  0.00     0.049 A 
ATOM     16  C   UNL     1      31.061   2.745  55.005  1.00  0.00     0.060 A 
ATOM     17  C   UNL     1      31.709   1.813  54.191  1.00  0.00     0.039 A 
BRANCH  15  18
ATOM     18  N   UNL     1      31.783   0.367  52.272  1.00  0.00    -0.306 N 
ATOM     19  C   UNL     1      31.380  -0.260  51.094  1.00  0.00     0.116 A 
ATOM     20  C   UNL     1      32.974  -0.181  52.543  1.00  0.00     0.204 A 
ATOM     21  C   UNL     1      32.344  -1.134  50.730  1.00  0.00     0.056 A 
ATOM     22  N   UNL     1      33.347  -1.046  51.631  1.00  0.00    -0.242 NA
ATOM     23  C   UNL     1      32.373  -2.031  49.516  1.00  0.00     0.068 C 
ENDBRANCH  15  18
BRANCH  16  24
ATOM     24  C   UNL     1      31.722   3.318  56.217  1.00  0.00     0.416 C 
ATOM     25  F   UNL     1      31.133   4.421  56.720  1.00  0.00    -0.166 F 
ATOM     26  F   UNL     1      31.651   2.477  57.242  1.00  0.00    -0.166 F 
ATOM     27  F   UNL     1      32.985   3.723  55.969  1.00  0.00    -0.166 F 
ENDBRANCH  16  24
ENDBRANCH  10  12
ENDBRANCH   1   8
BRANCH   6  28
ATOM     28  N   UNL     1      23.463   5.101  54.277  1.00  0.00    -0.324 N 
ATOM     29  H   UNL     1      22.477   5.000  54.557  1.00  0.00     0.170 HD
BRANCH  28  30
ATOM     30  C   UNL     1      24.325   5.910  55.020  1.00  0.00     0.227 A 
ATOM     31  N   UNL     1      25.597   6.207  54.784  1.00  0.00    -0.221 NA
ATOM     32  N   UNL     1      23.657   6.314  56.130  1.00  0.00    -0.213 NA
ATOM     33  C   UNL     1      26.216   6.984  55.693  1.00  0.00     0.117 A 
ATOM     34  C   UNL     1      24.324   7.057  57.021  1.00  0.00     0.077 A 
ATOM     35  C   UNL     1      25.613   7.401  56.817  1.00  0.00     0.049 A 
BRANCH  34  36
ATOM     36  C   UNL     1      23.538   7.503  58.202  1.00  0.00     0.019 A 
ATOM     37  C   UNL     1      24.062   8.415  59.132  1.00  0.00     0.013 A 
ATOM     38  C   UNL     1      22.240   7.005  58.427  1.00  0.00     0.121 A 
ATOM     39  C   UNL     1      23.292   8.777  60.230  1.00  0.00     0.021 A 
ATOM     40  N   UNL     1      21.496   7.343  59.488  1.00  0.00    -0.264 NA
ATOM     41  C   UNL     1      22.012   8.237  60.348  1.00  0.00     0.111 A 
ENDBRANCH  34  36
ENDBRANCH  28  30
ENDBRANCH   6  28
TORSDOF 7
ENDMDL
MODEL 12
REMARK VINA RESULT:   -11.012      3.655     12.007
REMARK INTER + INTRA:         -14.339
REMARK INTER:                 -13.100
REMARK INTRA:                  -1.239
REMARK CONF_INDEPENDENT:        2.088
REMARK UNBOUND:                -1.239
REMARK SMILES Cc1cn(-c2cc(NC(=O)c3ccc(C)c(Nc4nccc(-c5cccnc5)n4)c3)cc(C(F)(F)F)c2)cn1
REMARK SMILES IDX 11 1 12 2 13 3 14 4 15 5 16 6 30 7 9 8 10 9 8 10 7 12 6 13
REMARK SMILES IDX 31 14 5 15 32 16 37 17 4 18 3 19 38 20 2 21 39 22 1 23 33 24
REMARK SMILES IDX 34 25 35 26 36 27 17 28 18 30 19 31 29 32 20 33 22 34 21 35
REMARK SMILES IDX 23 36 24 37 28 38 25 39 27 40 26 41
REMARK H PARENT 8 11 17 29
ROOT
ATOM      1  C   UNL     1      26.126   3.309  51.545  1.00  0.00     0.042 A 
ATOM      2  C   UNL     1      25.468   3.625  50.347  1.00  0.00     0.014 A 
ATOM      3  C   UNL     1      24.226   4.262  50.346  1.00  0.00     0.006 A 
ATOM      4  C   UNL     1      23.556   4.532  51.529  1.00  0.00    -0.027 A 
ATOM      5  C   UNL     1      22.199   5.220  51.513  1.00  0.00     0.046 C 
ATOM      6  C   UNL     1      24.158   4.127  52.719  1.00  0.00     0.045 A 
ATOM      7  C   UNL     1      25.416   3.512  52.700  1.00  0.00     0.040 A 
ENDROOT
BRANCH   1   8
ATOM      8  C   UNL     1      27.374   2.527  51.640  1.00  0.00     0.255 C 
ATOM      9  O   UNL     1      28.258   2.868  50.892  1.00  0.00    -0.269 OA
ATOM     10  N   UNL     1      27.480   1.708  52.697  1.00  0.00    -0.322 N 
ATOM     11  H   UNL     1      26.662   1.639  53.319  1.00  0.00     0.170 HD
BRANCH  10  12
ATOM     12  C   UNL     1      28.592   0.945  53.030  1.00  0.00     0.044 A 
ATOM     13  C   UNL     1      29.876   1.273  52.528  1.00  0.00     0.052 A 
ATOM     14  C   UNL     1      28.449  -0.245  53.777  1.00  0.00     0.039 A 
ATOM     15  C   UNL     1      31.002   0.517  52.866  1.00  0.00     0.049 A 
ATOM     16  C   UNL     1      29.601  -1.001  54.138  1.00  0.00     0.060 A 
ATOM     17  C   UNL     1      30.853  -0.624  53.646  1.00  0.00     0.039 A 
BRANCH  15  18
ATOM     18  N   UNL     1      32.284   0.859  52.408  1.00  0.00    -0.306 N 
ATOM     19  C   UNL     1      32.927   0.472  51.234  1.00  0.00     0.116 A 
ATOM     20  C   UNL     1      33.207   1.569  53.067  1.00  0.00     0.204 A 
ATOM     21  C   UNL     1      34.182   0.972  51.255  1.00  0.00     0.056 A 
ATOM     22  N   UNL     1      34.326   1.682  52.395  1.00  0.00    -0.242 NA
ATOM     23  C   UNL     1      35.252   0.839  50.199  1.00  0.00     0.068 C 
ENDBRANCH  15  18
BRANCH  16  24
ATOM     24  C   UNL     1      29.426  -2.223  54.980  1.00  0.00     0.416 C 
ATOM     25  F   UNL     1      28.758  -2.029  56.134  1.00  0.00    -0.166 F 
ATOM     26  F   UNL     1      28.662  -3.120  54.367  1.00  0.00    -0.166 F 
ATOM     27  F   UNL     1      30.605  -2.740  55.384  1.00  0.00    -0.166 F 
ENDBRANCH  16  24
ENDBRANCH  10  12
ENDBRANCH   1   8
BRANCH   6  28
ATOM     28  N   UNL     1      23.581   4.532  53.930  1.00  0.00    -0.324 N 
ATOM     29  H   UNL     1      22.963   3.893  54.449  1.00  0.00     0.170 HD
BRANCH  28  30
ATOM     30  C   UNL     1      23.851   5.809  54.426  1.00  0.00     0.227 A 
ATOM     31  N   UNL     1      24.878   6.216  55.161  1.00  0.00    -0.221 NA
ATOM     32  N   UNL     1      22.807   6.610  54.092  1.00  0.00    -0.213 NA
ATOM     33  C   UNL     1      24.873   7.506  55.547  1.00  0.00     0.117 A 
ATOM     34  C   UNL     1      22.831   7.876  54.525  1.00  0.00     0.077 A 
ATOM     35  C   UNL     1      23.862   8.342  55.261  1.00  0.00     0.049 A 
BRANCH  34  36
ATOM     36  C   UNL     1      21.683   8.720  54.103  1.00  0.00     0.019 A 
ATOM     37  C   UNL     1      20.355   8.328  54.339  1.00  0.00     0.013 A 
ATOM     38  C   UNL     1      21.901   9.942  53.436  1.00  0.00     0.121 A 
ATOM     39  C   UNL     1      19.322   9.146  53.900  1.00  0.00     0.021 A 
ATOM     40  N   UNL     1      20.909  10.730  53.003  1.00  0.00    -0.264 NA
ATOM     41  C   UNL     1      19.649  10.344  53.265  1.00  0.00     0.111 A 
ENDBRANCH  34  36
ENDBRANCH  28  30
ENDBRANCH   6  28
TORSDOF 7
ENDMDL
MODEL 13
REMARK VINA RESULT:   -10.933      3.355      5.405
REMARK INTER + INTRA:         -14.093
REMARK INTER:                 -13.021
REMARK INTRA:                  -1.071
REMARK CONF_INDEPENDENT:        2.088
REMARK UNBOUND:                -1.071
REMARK SMILES Cc1cn(-c2cc(NC(=O)c3ccc(C)c(Nc4nccc(-c5cccnc5)n4)c3)cc(C(F)(F)F)c2)cn1
REMARK SMILES IDX 11 1 12 2 13 3 14 4 15 5 16 6 30 7 9 8 10 9 8 10 7 12 6 13
REMARK SMILES IDX 31 14 5 15 32 16 37 17 4 18 3 19 38 20 2 21 39 22 1 23 33 24
REMARK SMILES IDX 34 25 35 26 36 27 17 28 18 30 19 31 29 32 20 33 22 34 21 35
REMARK SMILES IDX 23 36 24 37 28 38 25 39 27 40 26 41
REMARK H PARENT 8 11 17 29
ROOT
ATOM      1  C   UNL     1      27.598   1.997  52.442  1.00  0.00     0.042 A 
ATOM      2  C   UNL     1      27.885   0.884  51.638  1.00  0.00     0.014 A 
ATOM      3  C   UNL     1      28.889  -0.022  51.984  1.00  0.00     0.006 A 
ATOM      4  C   UNL     1      29.697   0.188  53.089  1.00  0.00    -0.027 A 
ATOM      5  C   UNL     1      30.793  -0.805  53.449  1.00  0.00     0.046 C 
ATOM      6  C   UNL     1      29.485   1.347  53.833  1.00  0.00     0.045 A 
ATOM      7  C   UNL     1      28.456   2.231  53.485  1.00  0.00     0.040 A 
ENDROOT
BRANCH   1   8
ATOM      8  C   UNL     1      26.646   3.069  52.089  1.00  0.00     0.255 C 
ATOM      9  O   UNL     1      26.439   3.211  50.909  1.00  0.00    -0.269 OA
ATOM     10  N   UNL     1      25.936   3.587  53.103  1.00  0.00    -0.322 N 
ATOM     11  H   UNL     1      26.157   3.247  54.050  1.00  0.00     0.170 HD
BRANCH  10  12
ATOM     12  C   UNL     1      24.932   4.540  52.992  1.00  0.00     0.044 A 
ATOM     13  C   UNL     1      24.193   4.953  54.129  1.00  0.00     0.052 A 
ATOM     14  C   UNL     1      24.543   5.030  51.726  1.00  0.00     0.039 A 
ATOM     15  C   UNL     1      23.187   5.919  54.029  1.00  0.00     0.049 A 
ATOM     16  C   UNL     1      23.533   6.030  51.630  1.00  0.00     0.060 A 
ATOM     17  C   UNL     1      22.850   6.431  52.780  1.00  0.00     0.039 A 
BRANCH  15  18
ATOM     18  N   UNL     1      22.479   6.365  55.155  1.00  0.00    -0.306 N 
ATOM     19  C   UNL     1      22.957   6.658  56.431  1.00  0.00     0.116 A 
ATOM     20  C   UNL     1      21.153   6.517  55.259  1.00  0.00     0.204 A 
ATOM     21  C   UNL     1      21.902   6.970  57.215  1.00  0.00     0.056 A 
ATOM     22  N   UNL     1      20.786   6.907  56.455  1.00  0.00    -0.242 NA
ATOM     23  C   UNL     1      21.914   7.376  58.669  1.00  0.00     0.068 C 
ENDBRANCH  15  18
BRANCH  16  24
ATOM     24  C   UNL     1      23.183   6.574  50.283  1.00  0.00     0.416 C 
ATOM     25  F   UNL     1      21.978   6.196  49.811  1.00  0.00    -0.166 F 
ATOM     26  F   UNL     1      23.062   7.896  50.319  1.00  0.00    -0.166 F 
ATOM     27  F   UNL     1      24.038   6.160  49.325  1.00  0.00    -0.166 F 
ENDBRANCH  16  24
ENDBRANCH  10  12
ENDBRANCH   1   8
BRANCH   6  28
ATOM     28  N   UNL     1      30.177   1.499  55.042  1.00  0.00    -0.324 N 
ATOM     29  H   UNL     1      29.894   0.962  55.873  1.00  0.00     0.170 HD
BRANCH  28  30
ATOM     30  C   UNL     1      31.253   2.386  55.110  1.00  0.00     0.227 A 
ATOM     31  N   UNL     1      32.128   2.708  54.166  1.00  0.00    -0.221 NA
ATOM     32  N   UNL     1      31.328   2.845  56.386  1.00  0.00    -0.213 NA
ATOM     33  C   UNL     1      33.106   3.566  54.513  1.00  0.00     0.117 A 
ATOM     34  C   UNL     1      32.336   3.670  56.692  1.00  0.00     0.077 A 
ATOM     35  C   UNL     1      33.241   4.041  55.761  1.00  0.00     0.049 A 
BRANCH  34  36
ATOM     36  C   UNL     1      32.354   4.171  58.091  1.00  0.00     0.019 A 
ATOM     37  C   UNL     1      31.972   5.485  58.407  1.00  0.00     0.013 A 
ATOM     38  C   UNL     1      32.774   3.336  59.145  1.00  0.00     0.121 A 
ATOM     39  C   UNL     1      32.033   5.906  59.729  1.00  0.00     0.021 A 
ATOM     40  N   UNL     1      32.843   3.739  60.420  1.00  0.00    -0.264 NA
ATOM     41  C   UNL     1      32.447   4.992  60.697  1.00  0.00     0.111 A 
ENDBRANCH  34  36
ENDBRANCH  28  30
ENDBRANCH   6  28
TORSDOF 7
ENDMDL
MODEL 14
REMARK VINA RESULT:   -10.895      8.437     15.263
REMARK INTER + INTRA:         -14.285
REMARK INTER:                 -12.983
REMARK INTRA:                  -1.302
REMARK CONF_INDEPENDENT:        2.088
REMARK UNBOUND:                -1.302
REMARK SMILES Cc1cn(-c2cc(NC(=O)c3ccc(C)c(Nc4nccc(-c5cccnc5)n4)c3)cc(C(F)(F)F)c2)cn1
REMARK SMILES IDX 11 1 12 2 13 3 14 4 15 5 16 6 30 7 9 8 10 9 8 10 7 12 6 13
REMARK SMILES IDX 31 14 5 15 32 16 37 17 4 18 3 19 38 20 2 21 39 22 1 23 33 24
REMARK SMILES IDX 34 25 35 26 36 27 17 28 18 30 19 31 29 32 20 33 22 34 21 35
REMARK SMILES IDX 23 36 24 37 28 38 25 39 27 40 26 41
REMARK H PARENT 8 11 17 29
ROOT
ATOM      1  C   UNL     1      35.997  -1.707  49.310  1.00  0.00     0.042 A 
ATOM      2  C   UNL     1      35.204  -2.858  49.198  1.00  0.00     0.014 A 
ATOM      3  C   UNL     1      33.829  -2.820  49.435  1.00  0.00     0.006 A 
ATOM      4  C   UNL     1      33.207  -1.661  49.870  1.00  0.00    -0.027 A 
ATOM      5  C   UNL     1      31.708  -1.635  50.131  1.00  0.00     0.046 C 
ATOM      6  C   UNL     1      34.007  -0.539  50.082  1.00  0.00     0.045 A 
ATOM      7  C   UNL     1      35.381  -0.591  49.815  1.00  0.00     0.040 A 
ENDROOT
BRANCH   1   8
ATOM      8  C   UNL     1      37.469  -1.683  49.203  1.00  0.00     0.255 C 
ATOM      9  O   UNL     1      38.055  -1.326  50.196  1.00  0.00    -0.269 OA
ATOM     10  N   UNL     1      37.994  -2.288  48.127  1.00  0.00    -0.322 N 
ATOM     11  H   UNL     1      37.333  -2.660  47.431  1.00  0.00     0.170 HD
BRANCH  10  12
ATOM     12  C   UNL     1      39.348  -2.458  47.866  1.00  0.00     0.044 A 
ATOM     13  C   UNL     1      39.911  -2.028  46.639  1.00  0.00     0.052 A 
ATOM     14  C   UNL     1      40.169  -3.170  48.767  1.00  0.00     0.039 A 
ATOM     15  C   UNL     1      41.274  -2.186  46.371  1.00  0.00     0.049 A 
ATOM     16  C   UNL     1      41.562  -3.310  48.502  1.00  0.00     0.060 A 
ATOM     17  C   UNL     1      42.082  -2.845  47.292  1.00  0.00     0.039 A 
BRANCH  15  18
ATOM     18  N   UNL     1      41.849  -1.726  45.177  1.00  0.00    -0.306 N 
ATOM     19  C   UNL     1      42.150  -0.420  44.795  1.00  0.00     0.116 A 
ATOM     20  C   UNL     1      42.149  -2.460  44.098  1.00  0.00     0.204 A 
ATOM     21  C   UNL     1      42.612  -0.447  43.526  1.00  0.00     0.056 A 
ATOM     22  N   UNL     1      42.635  -1.735  43.119  1.00  0.00    -0.242 NA
ATOM     23  C   UNL     1      43.085   0.714  42.685  1.00  0.00     0.068 C 
ENDBRANCH  15  18
BRANCH  16  24
ATOM     24  C   UNL     1      42.419  -4.016  49.502  1.00  0.00     0.416 C 
ATOM     25  F   UNL     1      43.692  -4.226  49.114  1.00  0.00    -0.166 F 
ATOM     26  F   UNL     1      42.582  -3.280  50.595  1.00  0.00    -0.166 F 
ATOM     27  F   UNL     1      41.967  -5.257  49.779  1.00  0.00    -0.166 F 
ENDBRANCH  16  24
ENDBRANCH  10  12
ENDBRANCH   1   8
BRANCH   6  28
ATOM     28  N   UNL     1      33.381   0.682  50.364  1.00  0.00    -0.324 N 
ATOM     29  H   UNL     1      33.060   1.290  49.597  1.00  0.00     0.170 HD
BRANCH  28  30
ATOM     30  C   UNL     1      33.196   1.069  51.692  1.00  0.00     0.227 A 
ATOM     31  N   UNL     1      33.890   1.944  52.409  1.00  0.00    -0.221 NA
ATOM     32  N   UNL     1      32.187   0.318  52.203  1.00  0.00    -0.213 NA
ATOM     33  C   UNL     1      33.524   2.099  53.696  1.00  0.00     0.117 A 
ATOM     34  C   UNL     1      31.880   0.485  53.495  1.00  0.00     0.077 A 
ATOM     35  C   UNL     1      32.545   1.376  54.261  1.00  0.00     0.049 A 
BRANCH  34  36
ATOM     36  C   UNL     1      30.746  -0.334  53.996  1.00  0.00     0.019 A 
ATOM     37  C   UNL     1      29.667   0.245  54.683  1.00  0.00     0.013 A 
ATOM     38  C   UNL     1      30.732  -1.730  53.806  1.00  0.00     0.121 A 
ATOM     39  C   UNL     1      28.646  -0.573  55.151  1.00  0.00     0.021 A 
ATOM     40  N   UNL     1      29.756  -2.525  54.262  1.00  0.00    -0.264 NA
ATOM     41  C   UNL     1      28.724  -1.941  54.893  1.00  0.00     0.111 A 
ENDBRANCH  34  36
ENDBRANCH  28  30
ENDBRANCH   6  28
TORSDOF 7
ENDMDL
MODEL 15
REMARK VINA RESULT:   -10.813      4.097     11.165
REMARK INTER + INTRA:         -14.149
REMARK INTER:                 -12.901
REMARK INTRA:                  -1.248
REMARK CONF_INDEPENDENT:        2.088
REMARK UNBOUND:                -1.248
REMARK SMILES Cc1cn(-c2cc(NC(=O)c3ccc(C)c(Nc4nccc(-c5cccnc5)n4)c3)cc(C(F)(F)F)c2)cn1
REMARK SMILES IDX 11 1 12 2 13 3 14 4 15 5 16 6 30 7 9 8 10 9 8 10 7 12 6 13
REMARK SMILES IDX 31 14 5 15 32 16 37 17 4 18 3 19 38 20 2 21 39 22 1 23 33 24
REMARK SMILES IDX 34 25 35 26 36 27 17 28 18 30 19 31 29 32 20 33 22 34 21 35
REMARK SMILES IDX 23 36 24 37 28 38 25 39 27 40 26 41
REMARK H PARENT 8 11 17 29
ROOT
ATOM      1  C   UNL     1      25.550   3.720  51.874  1.00  0.00     0.042 A 
ATOM      2  C   UNL     1      24.768   3.826  50.714  1.00  0.00     0.014 A 
ATOM      3  C   UNL     1      23.454   4.292  50.763  1.00  0.00     0.006 A 
ATOM      4  C   UNL     1      22.842   4.591  51.971  1.00  0.00    -0.027 A 
ATOM      5  C   UNL     1      21.405   5.091  52.010  1.00  0.00     0.046 C 
ATOM      6  C   UNL     1      23.580   4.389  53.136  1.00  0.00     0.045 A 
ATOM      7  C   UNL     1      24.906   3.944  53.063  1.00  0.00     0.040 A 
ENDROOT
BRANCH   1   8
ATOM      8  C   UNL     1      26.898   3.120  51.930  1.00  0.00     0.255 C 
ATOM      9  O   UNL     1      27.403   2.879  50.861  1.00  0.00    -0.269 OA
ATOM     10  N   UNL     1      27.506   3.144  53.126  1.00  0.00    -0.322 N 
ATOM     11  H   UNL     1      26.964   3.514  53.919  1.00  0.00     0.170 HD
BRANCH  10  12
ATOM     12  C   UNL     1      28.800   2.714  53.391  1.00  0.00     0.044 A 
ATOM     13  C   UNL     1      29.401   1.693  52.613  1.00  0.00     0.052 A 
ATOM     14  C   UNL     1      29.500   3.198  54.518  1.00  0.00     0.039 A 
ATOM     15  C   UNL     1      30.706   1.261  52.867  1.00  0.00     0.049 A 
ATOM     16  C   UNL     1      30.838   2.772  54.761  1.00  0.00     0.060 A 
ATOM     17  C   UNL     1      31.403   1.786  53.950  1.00  0.00     0.039 A 
BRANCH  15  18
ATOM     18  N   UNL     1      31.325   0.282  52.076  1.00  0.00    -0.306 N 
ATOM     19  C   UNL     1      32.647   0.217  51.637  1.00  0.00     0.116 A 
ATOM     20  C   UNL     1      30.735  -0.769  51.493  1.00  0.00     0.204 A 
ATOM     21  C   UNL     1      32.771  -0.859  50.829  1.00  0.00     0.056 A 
ATOM     22  N   UNL     1      31.572  -1.481  50.778  1.00  0.00    -0.242 NA
ATOM     23  C   UNL     1      34.012  -1.355  50.128  1.00  0.00     0.068 C 
ENDBRANCH  15  18
BRANCH  16  24
ATOM     24  C   UNL     1      31.577   3.347  55.925  1.00  0.00     0.416 C 
ATOM     25  F   UNL     1      30.977   4.397  56.519  1.00  0.00    -0.166 F 
ATOM     26  F   UNL     1      31.650   2.472  56.922  1.00  0.00    -0.166 F 
ATOM     27  F   UNL     1      32.786   3.833  55.576  1.00  0.00    -0.166 F 
ENDBRANCH  16  24
ENDBRANCH  10  12
ENDBRANCH   1   8
BRANCH   6  28
ATOM     28  N   UNL     1      23.044   4.835  54.350  1.00  0.00    -0.324 N 
ATOM     29  H   UNL     1      22.406   4.233  54.889  1.00  0.00     0.170 HD
BRANCH  28  30
ATOM     30  C   UNL     1      23.382   6.104  54.825  1.00  0.00     0.227 A 
ATOM     31  N   UNL     1      23.182   7.286  54.256  1.00  0.00    -0.221 NA
ATOM     32  N   UNL     1      24.055   5.941  55.993  1.00  0.00    -0.213 NA
ATOM     33  C   UNL     1      23.651   8.363  54.916  1.00  0.00     0.117 A 
ATOM     34  C   UNL     1      24.530   7.038  56.595  1.00  0.00     0.077 A 
ATOM     35  C   UNL     1      24.337   8.265  56.065  1.00  0.00     0.049 A 
BRANCH  34  36
ATOM     36  C   UNL     1      25.229   6.809  57.887  1.00  0.00     0.019 A 
ATOM     37  C   UNL     1      24.520   6.646  59.088  1.00  0.00     0.013 A 
ATOM     38  C   UNL     1      26.636   6.766  57.942  1.00  0.00     0.121 A 
ATOM     39  C   UNL     1      25.227   6.460  60.269  1.00  0.00     0.021 A 
ATOM     40  N   UNL     1      27.323   6.596  59.078  1.00  0.00    -0.264 NA
ATOM     41  C   UNL     1      26.619   6.416  60.208  1.00  0.00     0.111 A 
ENDBRANCH  34  36
ENDBRANCH  28  30
ENDBRANCH   6  28
TORSDOF 7
ENDMDL
MODEL 16
REMARK VINA RESULT:   -10.813      3.643     12.045
REMARK INTER + INTRA:         -14.223
REMARK INTER:                 -12.901
REMARK INTRA:                  -1.323
REMARK CONF_INDEPENDENT:        2.088
REMARK UNBOUND:                -1.323
REMARK SMILES Cc1cn(-c2cc(NC(=O)c3ccc(C)c(Nc4nccc(-c5cccnc5)n4)c3)cc(C(F)(F)F)c2)cn1
REMARK SMILES IDX 11 1 12 2 13 3 14 4 15 5 16 6 30 7 9 8 10 9 8 10 7 12 6 13
REMARK SMILES IDX 31 14 5 15 32 16 37 17 4 18 3 19 38 20 2 21 39 22 1 23 33 24
REMARK SMILES IDX 34 25 35 26 36 27 17 28 18 30 19 31 29 32 20 33 22 34 21 35
REMARK SMILES IDX 23 36 24 37 28 38 25 39 27 40 26 41
REMARK H PARENT 8 11 17 29
ROOT
ATOM      1  C   UNL     1      25.731   3.613  51.915  1.00  0.00     0.042 A 
ATOM      2  C   UNL     1      24.959   3.692  50.746  1.00  0.00     0.014 A 
ATOM      3  C   UNL     1      23.623   4.094  50.783  1.00  0.00     0.006 A 
ATOM      4  C   UNL     1      22.983   4.351  51.985  1.00  0.00    -0.027 A 
ATOM      5  C   UNL     1      21.523   4.781  52.011  1.00  0.00     0.046 C 
ATOM      6  C   UNL     1      23.715   4.173  53.158  1.00  0.00     0.045 A 
ATOM      7  C   UNL     1      25.062   3.793  53.098  1.00  0.00     0.040 A 
ENDROOT
BRANCH   1   8
ATOM      8  C   UNL     1      27.105   3.078  51.983  1.00  0.00     0.255 C 
ATOM      9  O   UNL     1      27.663   2.948  50.922  1.00  0.00    -0.269 OA
ATOM     10  N   UNL     1      27.664   3.038  53.202  1.00  0.00    -0.322 N 
ATOM     11  H   UNL     1      27.072   3.317  53.997  1.00  0.00     0.170 HD
BRANCH  10  12
ATOM     12  C   UNL     1      28.967   2.653  53.490  1.00  0.00     0.044 A 
ATOM     13  C   UNL     1      29.637   1.696  52.687  1.00  0.00     0.052 A 
ATOM     14  C   UNL     1      29.611   3.116  54.658  1.00  0.00     0.039 A 
ATOM     15  C   UNL     1      30.951   1.310  52.962  1.00  0.00     0.049 A 
ATOM     16  C   UNL     1      30.959   2.738  54.924  1.00  0.00     0.060 A 
ATOM     17  C   UNL     1      31.592   1.815  54.089  1.00  0.00     0.039 A 
BRANCH  15  18
ATOM     18  N   UNL     1      31.637   0.395  52.149  1.00  0.00    -0.306 N 
ATOM     19  C   UNL     1      31.194  -0.262  51.003  1.00  0.00     0.116 A 
ATOM     20  C   UNL     1      32.855  -0.115  52.368  1.00  0.00     0.204 A 
ATOM     21  C   UNL     1      32.164  -1.113  50.602  1.00  0.00     0.056 A 
ATOM     22  N   UNL     1      33.207  -0.982  51.451  1.00  0.00    -0.242 NA
ATOM     23  C   UNL     1      32.159  -2.028  49.401  1.00  0.00     0.068 C 
ENDBRANCH  15  18
BRANCH  16  24
ATOM     24  C   UNL     1      31.636   3.291  56.136  1.00  0.00     0.416 C 
ATOM     25  F   UNL     1      31.650   2.470  57.205  1.00  0.00    -0.166 F 
ATOM     26  F   UNL     1      32.933   3.476  55.914  1.00  0.00    -0.166 F 
ATOM     27  F   UNL     1      31.029   4.402  56.601  1.00  0.00    -0.166 F 
ENDBRANCH  16  24
ENDBRANCH  10  12
ENDBRANCH   1   8
BRANCH   6  28
ATOM     28  N   UNL     1      23.143   4.581  54.369  1.00  0.00    -0.324 N 
ATOM     29  H   UNL     1      22.554   3.932  54.910  1.00  0.00     0.170 HD
BRANCH  28  30
ATOM     30  C   UNL     1      23.377   5.875  54.839  1.00  0.00     0.227 A 
ATOM     31  N   UNL     1      24.345   6.308  55.637  1.00  0.00    -0.221 NA
ATOM     32  N   UNL     1      22.365   6.664  54.395  1.00  0.00    -0.213 NA
ATOM     33  C   UNL     1      24.314   7.612  55.974  1.00  0.00     0.117 A 
ATOM     34  C   UNL     1      22.360   7.945  54.783  1.00  0.00     0.077 A 
ATOM     35  C   UNL     1      23.332   8.437  55.580  1.00  0.00     0.049 A 
BRANCH  34  36
ATOM     36  C   UNL     1      21.251   8.774  54.242  1.00  0.00     0.019 A 
ATOM     37  C   UNL     1      19.917   8.558  54.623  1.00  0.00     0.013 A 
ATOM     38  C   UNL     1      21.513   9.800  53.312  1.00  0.00     0.121 A 
ATOM     39  C   UNL     1      18.920   9.348  54.065  1.00  0.00     0.021 A 
ATOM     40  N   UNL     1      20.555  10.559  52.766  1.00  0.00    -0.264 NA
ATOM     41  C   UNL     1      19.291  10.348  53.167  1.00  0.00     0.111 A 
ENDBRANCH  34  36
ENDBRANCH  28  30
ENDBRANCH   6  28
TORSDOF 7
ENDMDL
MODEL 17
REMARK VINA RESULT:   -10.802      4.591     13.447
REMARK INTER + INTRA:         -14.221
REMARK INTER:                 -12.890
REMARK INTRA:                  -1.331
REMARK CONF_INDEPENDENT:        2.088
REMARK UNBOUND:                -1.331
REMARK SMILES Cc1cn(-c2cc(NC(=O)c3ccc(C)c(Nc4nccc(-c5cccnc5)n4)c3)cc(C(F)(F)F)c2)cn1
REMARK SMILES IDX 11 1 12 2 13 3 14 4 15 5 16 6 30 7 9 8 10 9 8 10 7 12 6 13
REMARK SMILES IDX 31 14 5 15 32 16 37 17 4 18 3 19 38 20 2 21 39 22 1 23 33 24
REMARK SMILES IDX 34 25 35 26 36 27 17 28 18 30 19 31 29 32 20 33 22 34 21 35
REMARK SMILES IDX 23 36 24 37 28 38 25 39 27 40 26 41
REMARK H PARENT 8 11 17 29
ROOT
ATOM      1  C   UNL     1      21.149   7.129  54.197  1.00  0.00     0.042 A 
ATOM      2  C   UNL     1      20.959   7.278  55.579  1.00  0.00     0.014 A 
ATOM      3  C   UNL     1      20.245   8.356  56.103  1.00  0.00     0.006 A 
ATOM      4  C   UNL     1      19.768   9.368  55.285  1.00  0.00    -0.027 A 
ATOM      5  C   UNL     1      18.998  10.542  55.871  1.00  0.00     0.046 C 
ATOM      6  C   UNL     1      20.044   9.279  53.921  1.00  0.00     0.045 A 
ATOM      7  C   UNL     1      20.740   8.176  53.412  1.00  0.00     0.040 A 
ENDROOT
BRANCH   1   8
ATOM      8  C   UNL     1      21.994   6.095  53.569  1.00  0.00     0.255 C 
ATOM      9  O   UNL     1      21.857   4.978  54.006  1.00  0.00    -0.269 OA
ATOM     10  N   UNL     1      22.619   6.450  52.436  1.00  0.00    -0.322 N 
ATOM     11  H   UNL     1      22.516   7.428  52.132  1.00  0.00     0.170 HD
BRANCH  10  12
ATOM     12  C   UNL     1      23.393   5.618  51.637  1.00  0.00     0.044 A 
ATOM     13  C   UNL     1      24.488   4.900  52.179  1.00  0.00     0.052 A 
ATOM     14  C   UNL     1      23.182   5.563  50.242  1.00  0.00     0.039 A 
ATOM     15  C   UNL     1      25.266   4.054  51.385  1.00  0.00     0.049 A 
ATOM     16  C   UNL     1      23.962   4.683  49.438  1.00  0.00     0.060 A 
ATOM     17  C   UNL     1      25.012   3.970  50.020  1.00  0.00     0.039 A 
BRANCH  15  18
ATOM     18  N   UNL     1      26.326   3.306  51.921  1.00  0.00    -0.306 N 
ATOM     19  C   UNL     1      26.564   2.953  53.248  1.00  0.00     0.116 A 
ATOM     20  C   UNL     1      27.396   2.847  51.262  1.00  0.00     0.204 A 
ATOM     21  C   UNL     1      27.749   2.305  53.306  1.00  0.00     0.056 A 
ATOM     22  N   UNL     1      28.238   2.221  52.049  1.00  0.00    -0.242 NA
ATOM     23  C   UNL     1      28.425   1.713  54.518  1.00  0.00     0.068 C 
ENDBRANCH  15  18
BRANCH  16  24
ATOM     24  C   UNL     1      23.676   4.600  47.974  1.00  0.00     0.416 C 
ATOM     25  F   UNL     1      22.440   4.995  47.611  1.00  0.00    -0.166 F 
ATOM     26  F   UNL     1      24.444   5.439  47.289  1.00  0.00    -0.166 F 
ATOM     27  F   UNL     1      23.751   3.336  47.507  1.00  0.00    -0.166 F 
ENDBRANCH  16  24
ENDBRANCH  10  12
ENDBRANCH   1   8
BRANCH   6  28
ATOM     28  N   UNL     1      19.436  10.199  53.057  1.00  0.00    -0.324 N 
ATOM     29  H   UNL     1      20.008  10.763  52.413  1.00  0.00     0.170 HD
BRANCH  28  30
ATOM     30  C   UNL     1      18.047  10.345  53.076  1.00  0.00     0.227 A 
ATOM     31  N   UNL     1      17.325  11.453  52.963  1.00  0.00    -0.221 NA
ATOM     32  N   UNL     1      17.508   9.123  53.320  1.00  0.00    -0.213 NA
ATOM     33  C   UNL     1      15.989  11.317  53.061  1.00  0.00     0.117 A 
ATOM     34  C   UNL     1      16.178   9.044  53.441  1.00  0.00     0.077 A 
ATOM     35  C   UNL     1      15.398  10.139  53.315  1.00  0.00     0.049 A 
BRANCH  34  36
ATOM     36  C   UNL     1      15.634   7.680  53.672  1.00  0.00     0.019 A 
ATOM     37  C   UNL     1      14.859   7.379  54.803  1.00  0.00     0.013 A 
ATOM     38  C   UNL     1      15.899   6.640  52.759  1.00  0.00     0.121 A 
ATOM     39  C   UNL     1      14.399   6.080  54.980  1.00  0.00     0.021 A 
ATOM     40  N   UNL     1      15.464   5.385  52.928  1.00  0.00    -0.264 NA
ATOM     41  C   UNL     1      14.704   5.131  54.005  1.00  0.00     0.111 A 
ENDBRANCH  34  36
ENDBRANCH  28  30
ENDBRANCH   6  28
TORSDOF 7
ENDMDL
MODEL 18
REMARK VINA RESULT:   -10.606      8.230     14.920
REMARK INTER + INTRA:         -14.051
REMARK INTER:                 -12.694
REMARK INTRA:                  -1.357
REMARK CONF_INDEPENDENT:        2.088
REMARK UNBOUND:                -1.357
REMARK SMILES Cc1cn(-c2cc(NC(=O)c3ccc(C)c(Nc4nccc(-c5cccnc5)n4)c3)cc(C(F)(F)F)c2)cn1
REMARK SMILES IDX 11 1 12 2 13 3 14 4 15 5 16 6 30 7 9 8 10 9 8 10 7 12 6 13
REMARK SMILES IDX 31 14 5 15 32 16 37 17 4 18 3 19 38 20 2 21 39 22 1 23 33 24
REMARK SMILES IDX 34 25 35 26 36 27 17 28 18 30 19 31 29 32 20 33 22 34 21 35
REMARK SMILES IDX 23 36 24 37 28 38 25 39 27 40 26 41
REMARK H PARENT 8 11 17 29
ROOT
ATOM      1  C   UNL     1      36.089  -1.603  49.561  1.00  0.00     0.042 A 
ATOM      2  C   UNL     1      35.402  -2.801  49.314  1.00  0.00     0.014 A 
ATOM      3  C   UNL     1      34.010  -2.869  49.386  1.00  0.00     0.006 A 
ATOM      4  C   UNL     1      33.257  -1.777  49.787  1.00  0.00    -0.027 A 
ATOM      5  C   UNL     1      31.740  -1.868  49.868  1.00  0.00     0.046 C 
ATOM      6  C   UNL     1      33.941  -0.613  50.134  1.00  0.00     0.045 A 
ATOM      7  C   UNL     1      35.337  -0.558  50.031  1.00  0.00     0.040 A 
ENDROOT
BRANCH   1   8
ATOM      8  C   UNL     1      37.557  -1.472  49.631  1.00  0.00     0.255 C 
ATOM      9  O   UNL     1      37.970  -0.698  50.460  1.00  0.00    -0.269 OA
ATOM     10  N   UNL     1      38.266  -2.392  48.960  1.00  0.00    -0.322 N 
ATOM     11  H   UNL     1      37.735  -3.073  48.398  1.00  0.00     0.170 HD
BRANCH  10  12
ATOM     12  C   UNL     1      39.650  -2.511  48.953  1.00  0.00     0.044 A 
ATOM     13  C   UNL     1      40.386  -2.509  50.164  1.00  0.00     0.052 A 
ATOM     14  C   UNL     1      40.365  -2.515  47.735  1.00  0.00     0.039 A 
ATOM     15  C   UNL     1      41.778  -2.637  50.168  1.00  0.00     0.049 A 
ATOM     16  C   UNL     1      41.780  -2.668  47.742  1.00  0.00     0.060 A 
ATOM     17  C   UNL     1      42.464  -2.692  48.959  1.00  0.00     0.039 A 
BRANCH  15  18
ATOM     18  N   UNL     1      42.512  -2.679  51.363  1.00  0.00    -0.306 N 
ATOM     19  C   UNL     1      42.533  -3.669  52.344  1.00  0.00     0.116 A 
ATOM     20  C   UNL     1      43.290  -1.709  51.859  1.00  0.00     0.204 A 
ATOM     21  C   UNL     1      43.318  -3.242  53.357  1.00  0.00     0.056 A 
ATOM     22  N   UNL     1      43.808  -2.028  53.020  1.00  0.00    -0.242 NA
ATOM     23  C   UNL     1      43.666  -3.970  54.633  1.00  0.00     0.068 C 
ENDBRANCH  15  18
BRANCH  16  24
ATOM     24  C   UNL     1      42.505  -2.730  46.436  1.00  0.00     0.416 C 
ATOM     25  F   UNL     1      42.668  -3.970  45.933  1.00  0.00    -0.166 F 
ATOM     26  F   UNL     1      41.809  -2.133  45.476  1.00  0.00    -0.166 F 
ATOM     27  F   UNL     1      43.767  -2.260  46.527  1.00  0.00    -0.166 F 
ENDBRANCH  16  24
ENDBRANCH  10  12
ENDBRANCH   1   8
BRANCH   6  28
ATOM     28  N   UNL     1      33.198   0.548  50.384  1.00  0.00    -0.324 N 
ATOM     29  H   UNL     1      32.794   1.084  49.603  1.00  0.00     0.170 HD
BRANCH  28  30
ATOM     30  C   UNL     1      33.009   0.972  51.701  1.00  0.00     0.227 A 
ATOM     31  N   UNL     1      33.687   1.883  52.387  1.00  0.00    -0.221 NA
ATOM     32  N   UNL     1      32.017   0.217  52.238  1.00  0.00    -0.213 NA
ATOM     33  C   UNL     1      33.322   2.071  53.669  1.00  0.00     0.117 A 
ATOM     34  C   UNL     1      31.711   0.417  53.526  1.00  0.00     0.077 A 
ATOM     35  C   UNL     1      32.360   1.346  54.261  1.00  0.00     0.049 A 
BRANCH  34  36
ATOM     36  C   UNL     1      30.596  -0.409  54.057  1.00  0.00     0.019 A 
ATOM     37  C   UNL     1      29.509   0.169  54.733  1.00  0.00     0.013 A 
ATOM     38  C   UNL     1      30.608  -1.809  53.907  1.00  0.00     0.121 A 
ATOM     39  C   UNL     1      28.508  -0.655  55.230  1.00  0.00     0.021 A 
ATOM     40  N   UNL     1      29.650  -2.610  54.391  1.00  0.00    -0.264 NA
ATOM     41  C   UNL     1      28.610  -2.028  55.011  1.00  0.00     0.111 A 
ENDBRANCH  34  36
ENDBRANCH  28  30
ENDBRANCH   6  28
TORSDOF 7
ENDMDL
MODEL 19
REMARK VINA RESULT:   -10.488      5.720     10.820
REMARK INTER + INTRA:         -13.744
REMARK INTER:                 -12.576
REMARK INTRA:                  -1.167
REMARK CONF_INDEPENDENT:        2.088
REMARK UNBOUND:                -1.167
REMARK SMILES Cc1cn(-c2cc(NC(=O)c3ccc(C)c(Nc4nccc(-c5cccnc5)n4)c3)cc(C(F)(F)F)c2)cn1
REMARK SMILES IDX 11 1 12 2 13 3 14 4 15 5 16 6 30 7 9 8 10 9 8 10 7 12 6 13
REMARK SMILES IDX 31 14 5 15 32 16 37 17 4 18 3 19 38 20 2 21 39 22 1 23 33 24
REMARK SMILES IDX 34 25 35 26 36 27 17 28 18 30 19 31 29 32 20 33 22 34 21 35
REMARK SMILES IDX 23 36 24 37 28 38 25 39 27 40 26 41
REMARK H PARENT 8 11 17 29
ROOT
ATOM      1  C   UNL     1      22.369   6.451  55.267  1.00  0.00     0.042 A 
ATOM      2  C   UNL     1      21.645   7.583  54.866  1.00  0.00     0.014 A 
ATOM      3  C   UNL     1      21.169   8.509  55.797  1.00  0.00     0.006 A 
ATOM      4  C   UNL     1      21.321   8.302  57.158  1.00  0.00    -0.027 A 
ATOM      5  C   UNL     1      20.790   9.316  58.162  1.00  0.00     0.046 C 
ATOM      6  C   UNL     1      21.949   7.126  57.567  1.00  0.00     0.045 A 
ATOM      7  C   UNL     1      22.442   6.222  56.617  1.00  0.00     0.040 A 
ENDROOT
BRANCH   1   8
ATOM      8  C   UNL     1      22.797   5.361  54.368  1.00  0.00     0.255 C 
ATOM      9  O   UNL     1      21.930   4.591  54.037  1.00  0.00    -0.269 OA
ATOM     10  N   UNL     1      24.017   5.489  53.823  1.00  0.00    -0.322 N 
ATOM     11  H   UNL     1      24.581   6.296  54.124  1.00  0.00     0.170 HD
BRANCH  10  12
ATOM     12  C   UNL     1      24.587   4.632  52.890  1.00  0.00     0.044 A 
ATOM     13  C   UNL     1      23.845   4.175  51.773  1.00  0.00     0.052 A 
ATOM     14  C   UNL     1      25.879   4.101  53.099  1.00  0.00     0.039 A 
ATOM     15  C   UNL     1      24.414   3.321  50.824  1.00  0.00     0.049 A 
ATOM     16  C   UNL     1      26.464   3.249  52.120  1.00  0.00     0.060 A 
ATOM     17  C   UNL     1      25.708   2.847  51.017  1.00  0.00     0.039 A 
BRANCH  15  18
ATOM     18  N   UNL     1      23.702   2.897  49.692  1.00  0.00    -0.306 N 
ATOM     19  C   UNL     1      22.889   1.775  49.538  1.00  0.00     0.116 A 
ATOM     20  C   UNL     1      23.732   3.449  48.473  1.00  0.00     0.204 A 
ATOM     21  C   UNL     1      22.480   1.723  48.252  1.00  0.00     0.056 A 
ATOM     22  N   UNL     1      22.992   2.797  47.610  1.00  0.00    -0.242 NA
ATOM     23  C   UNL     1      21.572   0.705  47.606  1.00  0.00     0.068 C 
ENDBRANCH  15  18
BRANCH  16  24
ATOM     24  C   UNL     1      27.856   2.750  52.337  1.00  0.00     0.416 C 
ATOM     25  F   UNL     1      27.970   1.412  52.455  1.00  0.00    -0.166 F 
ATOM     26  F   UNL     1      28.622   2.999  51.282  1.00  0.00    -0.166 F 
ATOM     27  F   UNL     1      28.393   3.212  53.485  1.00  0.00    -0.166 F 
ENDBRANCH  16  24
ENDBRANCH  10  12
ENDBRANCH   1   8
BRANCH   6  28
ATOM     28  N   UNL     1      22.258   6.973  58.924  1.00  0.00    -0.324 N 
ATOM     29  H   UNL     1      21.709   6.330  59.513  1.00  0.00     0.170 HD
BRANCH  28  30
ATOM     30  C   UNL     1      23.317   7.698  59.474  1.00  0.00     0.227 A 
ATOM     31  N   UNL     1      23.565   8.999  59.393  1.00  0.00    -0.221 NA
ATOM     32  N   UNL     1      24.152   6.814  60.078  1.00  0.00    -0.213 NA
ATOM     33  C   UNL     1      24.692   9.438  59.985  1.00  0.00     0.117 A 
ATOM     34  C   UNL     1      25.276   7.294  60.624  1.00  0.00     0.077 A 
ATOM     35  C   UNL     1      25.564   8.612  60.583  1.00  0.00     0.049 A 
BRANCH  34  36
ATOM     36  C   UNL     1      26.138   6.292  61.303  1.00  0.00     0.019 A 
ATOM     37  C   UNL     1      26.607   6.491  62.611  1.00  0.00     0.013 A 
ATOM     38  C   UNL     1      26.523   5.111  60.638  1.00  0.00     0.121 A 
ATOM     39  C   UNL     1      27.431   5.532  63.186  1.00  0.00     0.021 A 
ATOM     40  N   UNL     1      27.324   4.187  61.184  1.00  0.00    -0.264 NA
ATOM     41  C   UNL     1      27.737   4.391  62.445  1.00  0.00     0.111 A 
ENDBRANCH  34  36
ENDBRANCH  28  30
ENDBRANCH   6  28
TORSDOF 7
ENDMDL
MODEL 20
REMARK VINA RESULT:   -10.485      5.259      8.099
REMARK INTER + INTRA:         -13.770
REMARK INTER:                 -12.573
REMARK INTRA:                  -1.197
REMARK CONF_INDEPENDENT:        2.088
REMARK UNBOUND:                -1.197
REMARK SMILES Cc1cn(-c2cc(NC(=O)c3ccc(C)c(Nc4nccc(-c5cccnc5)n4)c3)cc(C(F)(F)F)c2)cn1
REMARK SMILES IDX 11 1 12 2 13 3 14 4 15 5 16 6 30 7 9 8 10 9 8 10 7 12 6 13
REMARK SMILES IDX 31 14 5 15 32 16 37 17 4 18 3 19 38 20 2 21 39 22 1 23 33 24
REMARK SMILES IDX 34 25 35 26 36 27 17 28 18 30 19 31 29 32 20 33 22 34 21 35
REMARK SMILES IDX 23 36 24 37 28 38 25 39 27 40 26 41
REMARK H PARENT 8 11 17 29
ROOT
ATOM      1  C   UNL     1      24.476   5.906  54.242  1.00  0.00     0.042 A 
ATOM      2  C   UNL     1      23.863   6.629  53.207  1.00  0.00     0.014 A 
ATOM      3  C   UNL     1      23.729   6.093  51.926  1.00  0.00     0.006 A 
ATOM      4  C   UNL     1      24.269   4.859  51.603  1.00  0.00    -0.027 A 
ATOM      5  C   UNL     1      24.122   4.289  50.199  1.00  0.00     0.046 C 
ATOM      6  C   UNL     1      24.970   4.180  52.599  1.00  0.00     0.045 A 
ATOM      7  C   UNL     1      25.072   4.724  53.886  1.00  0.00     0.040 A 
ENDROOT
BRANCH   1   8
ATOM      8  C   UNL     1      24.772   6.441  55.585  1.00  0.00     0.255 C 
ATOM      9  O   UNL     1      25.837   6.998  55.697  1.00  0.00    -0.269 OA
ATOM     10  N   UNL     1      23.746   6.477  56.448  1.00  0.00    -0.322 N 
ATOM     11  H   UNL     1      22.855   6.069  56.131  1.00  0.00     0.170 HD
BRANCH  10  12
ATOM     12  C   UNL     1      23.775   7.012  57.729  1.00  0.00     0.044 A 
ATOM     13  C   UNL     1      24.750   6.597  58.669  1.00  0.00     0.052 A 
ATOM     14  C   UNL     1      22.760   7.893  58.162  1.00  0.00     0.039 A 
ATOM     15  C   UNL     1      24.794   7.137  59.957  1.00  0.00     0.049 A 
ATOM     16  C   UNL     1      22.819   8.460  59.467  1.00  0.00     0.060 A 
ATOM     17  C   UNL     1      23.816   8.045  60.353  1.00  0.00     0.039 A 
BRANCH  15  18
ATOM     18  N   UNL     1      25.781   6.764  60.881  1.00  0.00    -0.306 N 
ATOM     19  C   UNL     1      26.025   5.512  61.444  1.00  0.00     0.116 A 
ATOM     20  C   UNL     1      26.652   7.573  61.495  1.00  0.00     0.204 A 
ATOM     21  C   UNL     1      27.021   5.642  62.347  1.00  0.00     0.056 A 
ATOM     22  N   UNL     1      27.421   6.933  62.341  1.00  0.00    -0.242 NA
ATOM     23  C   UNL     1      27.650   4.566  63.198  1.00  0.00     0.068 C 
ENDBRANCH  15  18
BRANCH  16  24
ATOM     24  C   UNL     1      21.765   9.436  59.878  1.00  0.00     0.416 C 
ATOM     25  F   UNL     1      21.112   9.124  61.016  1.00  0.00    -0.166 F 
ATOM     26  F   UNL     1      22.298  10.614  60.181  1.00  0.00    -0.166 F 
ATOM     27  F   UNL     1      20.775   9.537  58.967  1.00  0.00    -0.166 F 
ENDBRANCH  16  24
ENDBRANCH  10  12
ENDBRANCH   1   8
BRANCH   6  28
ATOM     28  N   UNL     1      25.383   2.865  52.346  1.00  0.00    -0.324 N 
ATOM     29  H   UNL     1      24.697   2.097  52.344  1.00  0.00     0.170 HD
BRANCH  28  30
ATOM     30  C   UNL     1      26.731   2.605  52.096  1.00  0.00     0.227 A 
ATOM     31  N   UNL     1      27.557   3.222  51.261  1.00  0.00    -0.221 NA
ATOM     32  N   UNL     1      27.081   1.511  52.821  1.00  0.00    -0.213 NA
ATOM     33  C   UNL     1      28.811   2.736  51.180  1.00  0.00     0.117 A 
ATOM     34  C   UNL     1      28.328   1.046  52.683  1.00  0.00     0.077 A 
ATOM     35  C   UNL     1      29.211   1.650  51.859  1.00  0.00     0.049 A 
BRANCH  34  36
ATOM     36  C   UNL     1      28.671  -0.131  53.524  1.00  0.00     0.019 A 
ATOM     37  C   UNL     1      27.891  -0.495  54.633  1.00  0.00     0.013 A 
ATOM     38  C   UNL     1      29.809  -0.909  53.234  1.00  0.00     0.121 A 
ATOM     39  C   UNL     1      28.275  -1.590  55.397  1.00  0.00     0.021 A 
ATOM     40  N   UNL     1      30.188  -1.961  53.971  1.00  0.00    -0.264 NA
ATOM     41  C   UNL     1      29.410  -2.302  55.011  1.00  0.00     0.111 A 
ENDBRANCH  34  36
ENDBRANCH  28  30
ENDBRANCH   6  28
TORSDOF 7
ENDMDL
