MODEL 1
REMARK VINA RESULT:   -14.404      0.000      0.000
REMARK INTER + INTRA:         -17.664
REMARK INTER:                 -16.492
REMARK INTRA:                  -1.172
REMARK CONF_INDEPENDENT:        2.088
REMARK UNBOUND:                -1.172
REMARK SMILES Cc1cn(-c2cc(NC(=O)c3ccc(C)c(Nc4nccc(-c5cccnc5)n4)c3)cc(C(F)(F)F)c2)cn1
REMARK SMILES IDX 11 1 12 2 13 3 14 4 15 5 16 6 30 7 9 8 10 9 8 10 7 12 6 13
REMARK SMILES IDX 31 14 5 15 32 16 37 17 4 18 3 19 38 20 2 21 39 22 1 23 33 24
REMARK SMILES IDX 34 25 35 26 36 27 17 28 18 30 19 31 29 32 20 33 22 34 21 35
REMARK SMILES IDX 23 36 24 37 28 38 25 39 27 40 26 41
REMARK H PARENT 8 11 17 29
ROOT
ATOM      1  C   UNL     1      27.945   1.725  53.064  1.00  0.00     0.042 A 
ATOM      2  C   UNL     1      27.636   1.172  54.316  1.00  0.00     0.014 A 
ATOM      3  C   UNL     1      28.344   0.081  54.823  1.00  0.00     0.006 A 
ATOM      4  C   UNL     1      29.322  -0.552  54.074  1.00  0.00    -0.027 A 
ATOM      5  C   UNL     1      30.080  -1.745  54.637  1.00  0.00     0.046 C 
ATOM      6  C   UNL     1      29.562  -0.072  52.788  1.00  0.00     0.045 A 
ATOM      7  C   UNL     1      28.859   1.040  52.307  1.00  0.00     0.040 A 
ENDROOT
BRANCH   1   8
ATOM      8  C   UNL     1      27.170   2.791  52.399  1.00  0.00     0.255 C 
ATOM      9  O   UNL     1      27.492   3.032  51.261  1.00  0.00    -0.269 OA
ATOM     10  N   UNL     1      26.054   3.191  53.026  1.00  0.00    -0.322 N 
ATOM     11  H   UNL     1      25.861   2.774  53.948  1.00  0.00     0.170 HD
BRANCH  10  12
ATOM     12  C   UNL     1      25.135   4.116  52.547  1.00  0.00     0.044 A 
ATOM     13  C   UNL     1      24.218   4.750  53.421  1.00  0.00     0.052 A 
ATOM     14  C   UNL     1      25.014   4.355  51.160  1.00  0.00     0.039 A 
ATOM     15  C   UNL     1      23.297   5.689  52.949  1.00  0.00     0.049 A 
ATOM     16  C   UNL     1      24.090   5.328  50.685  1.00  0.00     0.060 A 
ATOM     17  C   UNL     1      23.224   5.953  51.585  1.00  0.00     0.039 A 
BRANCH  15  18
ATOM     18  N   UNL     1      22.413   6.354  53.813  1.00  0.00    -0.306 N 
ATOM     19  C   UNL     1      22.096   6.060  55.138  1.00  0.00     0.116 A 
ATOM     20  C   UNL     1      21.606   7.375  53.502  1.00  0.00     0.204 A 
ATOM     21  C   UNL     1      21.132   6.916  55.542  1.00  0.00     0.056 A 
ATOM     22  N   UNL     1      20.863   7.752  54.514  1.00  0.00    -0.242 NA
ATOM     23  C   UNL     1      20.478   7.005  56.899  1.00  0.00     0.068 C 
ENDBRANCH  15  18
BRANCH  16  24
ATOM     24  C   UNL     1      24.025   5.605  49.218  1.00  0.00     0.416 C 
ATOM     25  F   UNL     1      24.833   6.593  48.788  1.00  0.00    -0.166 F 
ATOM     26  F   UNL     1      24.464   4.566  48.516  1.00  0.00    -0.166 F 
ATOM     27  F   UNL     1      22.799   6.009  48.826  1.00  0.00    -0.166 F 
ENDBRANCH  16  24
ENDBRANCH  10  12
ENDBRANCH   1   8
BRANCH   6  28
ATOM     28  N   UNL     1      30.653  -0.588  52.076  1.00  0.00    -0.324 N 
ATOM     29  H   UNL     1      30.525  -1.383  51.434  1.00  0.00     0.170 HD
BRANCH  28  30
ATOM     30  C   UNL     1      31.915  -0.016  52.245  1.00  0.00     0.227 A 
ATOM     31  N   UNL     1      32.289   0.946  53.079  1.00  0.00    -0.221 NA
ATOM     32  N   UNL     1      32.744  -0.567  51.321  1.00  0.00    -0.213 NA
ATOM     33  C   UNL     1      33.572   1.347  53.005  1.00  0.00     0.117 A 
ATOM     34  C   UNL     1      34.002  -0.113  51.264  1.00  0.00     0.077 A 
ATOM     35  C   UNL     1      34.434   0.852  52.104  1.00  0.00     0.049 A 
BRANCH  34  36
ATOM     36  C   UNL     1      34.877  -0.773  50.260  1.00  0.00     0.019 A 
ATOM     37  C   UNL     1      36.153  -0.271  49.954  1.00  0.00     0.013 A 
ATOM     38  C   UNL     1      34.439  -1.921  49.573  1.00  0.00     0.121 A 
ATOM     39  C   UNL     1      36.917  -0.914  48.989  1.00  0.00     0.021 A 
ATOM     40  N   UNL     1      35.168  -2.541  48.636  1.00  0.00    -0.264 NA
ATOM     41  C   UNL     1      36.394  -2.054  48.381  1.00  0.00     0.111 A 
ENDBRANCH  34  36
ENDBRANCH  28  30
ENDBRANCH   6  28
TORSDOF 7
ENDMDL
MODEL 2
REMARK VINA RESULT:   -12.148      1.483      3.586
REMARK INTER + INTRA:         -15.833
REMARK INTER:                 -14.236
REMARK INTRA:                  -1.597
REMARK CONF_INDEPENDENT:        2.088
REMARK UNBOUND:                -1.597
REMARK SMILES Cc1cn(-c2cc(NC(=O)c3ccc(C)c(Nc4nccc(-c5cccnc5)n4)c3)cc(C(F)(F)F)c2)cn1
REMARK SMILES IDX 11 1 12 2 13 3 14 4 15 5 16 6 30 7 9 8 10 9 8 10 7 12 6 13
REMARK SMILES IDX 31 14 5 15 32 16 37 17 4 18 3 19 38 20 2 21 39 22 1 23 33 24
REMARK SMILES IDX 34 25 35 26 36 27 17 28 18 30 19 31 29 32 20 33 22 34 21 35
REMARK SMILES IDX 23 36 24 37 28 38 25 39 27 40 26 41
REMARK H PARENT 8 11 17 29
ROOT
ATOM      1  C   UNL     1      27.646   1.637  52.841  1.00  0.00     0.042 A 
ATOM      2  C   UNL     1      27.379   1.065  54.094  1.00  0.00     0.014 A 
ATOM      3  C   UNL     1      28.100  -0.036  54.559  1.00  0.00     0.006 A 
ATOM      4  C   UNL     1      29.051  -0.659  53.767  1.00  0.00    -0.027 A 
ATOM      5  C   UNL     1      29.825  -1.863  54.285  1.00  0.00     0.046 C 
ATOM      6  C   UNL     1      29.248  -0.159  52.481  1.00  0.00     0.045 A 
ATOM      7  C   UNL     1      28.532   0.962  52.042  1.00  0.00     0.040 A 
ENDROOT
BRANCH   1   8
ATOM      8  C   UNL     1      26.853   2.715  52.219  1.00  0.00     0.255 C 
ATOM      9  O   UNL     1      27.033   2.876  51.037  1.00  0.00    -0.269 OA
ATOM     10  N   UNL     1      25.854   3.218  52.961  1.00  0.00    -0.322 N 
ATOM     11  H   UNL     1      25.762   2.862  53.923  1.00  0.00     0.170 HD
BRANCH  10  12
ATOM     12  C   UNL     1      24.934   4.174  52.550  1.00  0.00     0.044 A 
ATOM     13  C   UNL     1      24.080   4.810  53.485  1.00  0.00     0.052 A 
ATOM     14  C   UNL     1      24.746   4.446  51.178  1.00  0.00     0.039 A 
ATOM     15  C   UNL     1      23.158   5.780  53.083  1.00  0.00     0.049 A 
ATOM     16  C   UNL     1      23.822   5.451  50.772  1.00  0.00     0.060 A 
ATOM     17  C   UNL     1      23.020   6.075  51.730  1.00  0.00     0.039 A 
BRANCH  15  18
ATOM     18  N   UNL     1      22.338   6.446  54.006  1.00  0.00    -0.306 N 
ATOM     19  C   UNL     1      21.944   6.040  55.280  1.00  0.00     0.116 A 
ATOM     20  C   UNL     1      21.677   7.593  53.809  1.00  0.00     0.204 A 
ATOM     21  C   UNL     1      21.083   6.960  55.768  1.00  0.00     0.056 A 
ATOM     22  N   UNL     1      20.955   7.940  54.846  1.00  0.00    -0.242 NA
ATOM     23  C   UNL     1      20.402   6.971  57.115  1.00  0.00     0.068 C 
ENDBRANCH  15  18
BRANCH  16  24
ATOM     24  C   UNL     1      23.686   5.760  49.317  1.00  0.00     0.416 C 
ATOM     25  F   UNL     1      22.418   5.842  48.867  1.00  0.00    -0.166 F 
ATOM     26  F   UNL     1      24.154   6.972  49.041  1.00  0.00    -0.166 F 
ATOM     27  F   UNL     1      24.234   4.806  48.536  1.00  0.00    -0.166 F 
ENDBRANCH  16  24
ENDBRANCH  10  12
ENDBRANCH   1   8
BRANCH   6  28
ATOM     28  N   UNL     1      30.313  -0.666  51.724  1.00  0.00    -0.324 N 
ATOM     29  H   UNL     1      30.160  -1.448  51.071  1.00  0.00     0.170 HD
BRANCH  28  30
ATOM     30  C   UNL     1      31.583  -0.104  51.864  1.00  0.00     0.227 A 
ATOM     31  N   UNL     1      32.702  -0.405  51.216  1.00  0.00    -0.221 NA
ATOM     32  N   UNL     1      31.525   0.800  52.875  1.00  0.00    -0.213 NA
ATOM     33  C   UNL     1      33.811   0.268  51.579  1.00  0.00     0.117 A 
ATOM     34  C   UNL     1      32.659   1.420  53.221  1.00  0.00     0.077 A 
ATOM     35  C   UNL     1      33.819   1.162  52.580  1.00  0.00     0.049 A 
BRANCH  34  36
ATOM     36  C   UNL     1      32.535   2.425  54.308  1.00  0.00     0.019 A 
ATOM     37  C   UNL     1      31.433   2.437  55.178  1.00  0.00     0.013 A 
ATOM     38  C   UNL     1      33.525   3.412  54.486  1.00  0.00     0.121 A 
ATOM     39  C   UNL     1      31.358   3.416  56.160  1.00  0.00     0.021 A 
ATOM     40  N   UNL     1      33.454   4.363  55.426  1.00  0.00    -0.264 NA
ATOM     41  C   UNL     1      32.402   4.335  56.260  1.00  0.00     0.111 A 
ENDBRANCH  34  36
ENDBRANCH  28  30
ENDBRANCH   6  28
TORSDOF 7
ENDMDL
MODEL 3
REMARK VINA RESULT:   -11.871      1.518      2.161
REMARK INTER + INTRA:         -15.412
REMARK INTER:                 -13.959
REMARK INTRA:                  -1.453
REMARK CONF_INDEPENDENT:        2.088
REMARK UNBOUND:                -1.453
REMARK SMILES Cc1cn(-c2cc(NC(=O)c3ccc(C)c(Nc4nccc(-c5cccnc5)n4)c3)cc(C(F)(F)F)c2)cn1
REMARK SMILES IDX 11 1 12 2 13 3 14 4 15 5 16 6 30 7 9 8 10 9 8 10 7 12 6 13
REMARK SMILES IDX 31 14 5 15 32 16 37 17 4 18 3 19 38 20 2 21 39 22 1 23 33 24
REMARK SMILES IDX 34 25 35 26 36 27 17 28 18 30 19 31 29 32 20 33 22 34 21 35
REMARK SMILES IDX 23 36 24 37 28 38 25 39 27 40 26 41
REMARK H PARENT 8 11 17 29
ROOT
ATOM      1  C   UNL     1      27.788   1.718  53.406  1.00  0.00     0.042 A 
ATOM      2  C   UNL     1      27.145   0.500  53.675  1.00  0.00     0.014 A 
ATOM      3  C   UNL     1      27.805  -0.540  54.332  1.00  0.00     0.006 A 
ATOM      4  C   UNL     1      29.145  -0.441  54.669  1.00  0.00    -0.027 A 
ATOM      5  C   UNL     1      29.854  -1.587  55.378  1.00  0.00     0.046 C 
ATOM      6  C   UNL     1      29.817   0.727  54.311  1.00  0.00     0.045 A 
ATOM      7  C   UNL     1      29.131   1.769  53.675  1.00  0.00     0.040 A 
ENDROOT
BRANCH   1   8
ATOM      8  C   UNL     1      27.210   2.818  52.609  1.00  0.00     0.255 C 
ATOM      9  O   UNL     1      27.772   3.054  51.567  1.00  0.00    -0.269 OA
ATOM     10  N   UNL     1      26.002   3.257  52.994  1.00  0.00    -0.322 N 
ATOM     11  H   UNL     1      25.605   2.842  53.849  1.00  0.00     0.170 HD
BRANCH  10  12
ATOM     12  C   UNL     1      25.239   4.220  52.346  1.00  0.00     0.044 A 
ATOM     13  C   UNL     1      24.550   5.217  53.080  1.00  0.00     0.052 A 
ATOM     14  C   UNL     1      25.036   4.155  50.950  1.00  0.00     0.039 A 
ATOM     15  C   UNL     1      23.788   6.196  52.437  1.00  0.00     0.049 A 
ATOM     16  C   UNL     1      24.277   5.166  50.294  1.00  0.00     0.060 A 
ATOM     17  C   UNL     1      23.639   6.149  51.054  1.00  0.00     0.039 A 
BRANCH  15  18
ATOM     18  N   UNL     1      23.135   7.211  53.151  1.00  0.00    -0.306 N 
ATOM     19  C   UNL     1      22.299   8.219  52.675  1.00  0.00     0.116 A 
ATOM     20  C   UNL     1      23.260   7.480  54.457  1.00  0.00     0.204 A 
ATOM     21  C   UNL     1      21.971   9.021  53.711  1.00  0.00     0.056 A 
ATOM     22  N   UNL     1      22.556   8.522  54.823  1.00  0.00    -0.242 NA
ATOM     23  C   UNL     1      21.074  10.235  53.699  1.00  0.00     0.068 C 
ENDBRANCH  15  18
BRANCH  16  24
ATOM     24  C   UNL     1      24.128   5.107  48.809  1.00  0.00     0.416 C 
ATOM     25  F   UNL     1      24.460   3.926  48.250  1.00  0.00    -0.166 F 
ATOM     26  F   UNL     1      22.856   5.232  48.451  1.00  0.00    -0.166 F 
ATOM     27  F   UNL     1      24.930   5.989  48.177  1.00  0.00    -0.166 F 
ENDBRANCH  16  24
ENDBRANCH  10  12
ENDBRANCH   1   8
BRANCH   6  28
ATOM     28  N   UNL     1      31.123   0.916  54.782  1.00  0.00    -0.324 N 
ATOM     29  H   UNL     1      31.320   0.878  55.792  1.00  0.00     0.170 HD
BRANCH  28  30
ATOM     30  C   UNL     1      32.154   1.157  53.872  1.00  0.00     0.227 A 
ATOM     31  N   UNL     1      33.103   2.083  53.915  1.00  0.00    -0.221 NA
ATOM     32  N   UNL     1      31.991   0.301  52.830  1.00  0.00    -0.213 NA
ATOM     33  C   UNL     1      33.956   2.125  52.874  1.00  0.00     0.117 A 
ATOM     34  C   UNL     1      32.844   0.402  51.804  1.00  0.00     0.077 A 
ATOM     35  C   UNL     1      33.837   1.316  51.809  1.00  0.00     0.049 A 
BRANCH  34  36
ATOM     36  C   UNL     1      32.645  -0.579  50.705  1.00  0.00     0.019 A 
ATOM     37  C   UNL     1      31.363  -1.007  50.324  1.00  0.00     0.013 A 
ATOM     38  C   UNL     1      33.751  -1.120  50.021  1.00  0.00     0.121 A 
ATOM     39  C   UNL     1      31.240  -1.945  49.307  1.00  0.00     0.021 A 
ATOM     40  N   UNL     1      33.638  -2.030  49.045  1.00  0.00    -0.264 NA
ATOM     41  C   UNL     1      32.400  -2.403  48.684  1.00  0.00     0.111 A 
ENDBRANCH  34  36
ENDBRANCH  28  30
ENDBRANCH   6  28
TORSDOF 7
ENDMDL
MODEL 4
REMARK VINA RESULT:   -11.568      4.121     11.236
REMARK INTER + INTRA:         -14.821
REMARK INTER:                 -13.656
REMARK INTRA:                  -1.165
REMARK CONF_INDEPENDENT:        2.088
REMARK UNBOUND:                -1.165
REMARK SMILES Cc1cn(-c2cc(NC(=O)c3ccc(C)c(Nc4nccc(-c5cccnc5)n4)c3)cc(C(F)(F)F)c2)cn1
REMARK SMILES IDX 11 1 12 2 13 3 14 4 15 5 16 6 30 7 9 8 10 9 8 10 7 12 6 13
REMARK SMILES IDX 31 14 5 15 32 16 37 17 4 18 3 19 38 20 2 21 39 22 1 23 33 24
REMARK SMILES IDX 34 25 35 26 36 27 17 28 18 30 19 31 29 32 20 33 22 34 21 35
REMARK SMILES IDX 23 36 24 37 28 38 25 39 27 40 26 41
REMARK H PARENT 8 11 17 29
ROOT
ATOM      1  C   UNL     1      25.857   3.858  52.017  1.00  0.00     0.042 A 
ATOM      2  C   UNL     1      25.275   4.379  50.852  1.00  0.00     0.014 A 
ATOM      3  C   UNL     1      24.154   5.208  50.907  1.00  0.00     0.006 A 
ATOM      4  C   UNL     1      23.522   5.482  52.110  1.00  0.00    -0.027 A 
ATOM      5  C   UNL     1      22.295   6.382  52.154  1.00  0.00     0.046 C 
ATOM      6  C   UNL     1      24.033   4.883  53.260  1.00  0.00     0.045 A 
ATOM      7  C   UNL     1      25.174   4.074  53.186  1.00  0.00     0.040 A 
ENDROOT
BRANCH   1   8
ATOM      8  C   UNL     1      26.959   2.876  52.044  1.00  0.00     0.255 C 
ATOM      9  O   UNL     1      27.651   2.847  51.055  1.00  0.00    -0.269 OA
ATOM     10  N   UNL     1      27.225   2.316  53.233  1.00  0.00    -0.322 N 
ATOM     11  H   UNL     1      26.601   2.562  54.015  1.00  0.00     0.170 HD
BRANCH  10  12
ATOM     12  C   UNL     1      28.264   1.435  53.507  1.00  0.00     0.044 A 
ATOM     13  C   UNL     1      29.569   1.673  53.009  1.00  0.00     0.052 A 
ATOM     14  C   UNL     1      28.016   0.222  54.185  1.00  0.00     0.039 A 
ATOM     15  C   UNL     1      30.622   0.798  53.287  1.00  0.00     0.049 A 
ATOM     16  C   UNL     1      29.095  -0.657  54.487  1.00  0.00     0.060 A 
ATOM     17  C   UNL     1      30.373  -0.369  54.002  1.00  0.00     0.039 A 
BRANCH  15  18
ATOM     18  N   UNL     1      31.927   1.046  52.835  1.00  0.00    -0.306 N 
ATOM     19  C   UNL     1      32.560   0.574  51.686  1.00  0.00     0.116 A 
ATOM     20  C   UNL     1      32.881   1.730  53.477  1.00  0.00     0.204 A 
ATOM     21  C   UNL     1      33.841   1.002  51.705  1.00  0.00     0.056 A 
ATOM     22  N   UNL     1      34.013   1.751  52.816  1.00  0.00    -0.242 NA
ATOM     23  C   UNL     1      34.915   0.764  50.670  1.00  0.00     0.068 C 
ENDBRANCH  15  18
BRANCH  16  24
ATOM     24  C   UNL     1      28.814  -1.906  55.258  1.00  0.00     0.416 C 
ATOM     25  F   UNL     1      27.959  -2.762  54.665  1.00  0.00    -0.166 F 
ATOM     26  F   UNL     1      29.908  -2.649  55.378  1.00  0.00    -0.166 F 
ATOM     27  F   UNL     1      28.230  -1.653  56.448  1.00  0.00    -0.166 F 
ENDBRANCH  16  24
ENDBRANCH  10  12
ENDBRANCH   1   8
BRANCH   6  28
ATOM     28  N   UNL     1      23.514   5.272  54.501  1.00  0.00    -0.324 N 
ATOM     29  H   UNL     1      22.845   4.666  54.997  1.00  0.00     0.170 HD
BRANCH  28  30
ATOM     30  C   UNL     1      23.911   6.488  55.061  1.00  0.00     0.227 A 
ATOM     31  N   UNL     1      23.851   7.705  54.536  1.00  0.00    -0.221 NA
ATOM     32  N   UNL     1      24.473   6.222  56.268  1.00  0.00    -0.213 NA
ATOM     33  C   UNL     1      24.348   8.711  55.281  1.00  0.00     0.117 A 
ATOM     34  C   UNL     1      24.982   7.250  56.957  1.00  0.00     0.077 A 
ATOM     35  C   UNL     1      24.929   8.509  56.473  1.00  0.00     0.049 A 
BRANCH  34  36
ATOM     36  C   UNL     1      25.554   6.911  58.287  1.00  0.00     0.019 A 
ATOM     37  C   UNL     1      24.734   6.655  59.397  1.00  0.00     0.013 A 
ATOM     38  C   UNL     1      26.949   6.854  58.471  1.00  0.00     0.121 A 
ATOM     39  C   UNL     1      25.324   6.368  60.621  1.00  0.00     0.021 A 
ATOM     40  N   UNL     1      27.525   6.586  59.650  1.00  0.00    -0.264 NA
ATOM     41  C   UNL     1      26.716   6.319  60.689  1.00  0.00     0.111 A 
ENDBRANCH  34  36
ENDBRANCH  28  30
ENDBRANCH   6  28
TORSDOF 7
ENDMDL
MODEL 5
REMARK VINA RESULT:   -11.563      3.741     11.729
REMARK INTER + INTRA:         -14.790
REMARK INTER:                 -13.651
REMARK INTRA:                  -1.139
REMARK CONF_INDEPENDENT:        2.088
REMARK UNBOUND:                -1.139
REMARK SMILES Cc1cn(-c2cc(NC(=O)c3ccc(C)c(Nc4nccc(-c5cccnc5)n4)c3)cc(C(F)(F)F)c2)cn1
REMARK SMILES IDX 11 1 12 2 13 3 14 4 15 5 16 6 30 7 9 8 10 9 8 10 7 12 6 13
REMARK SMILES IDX 31 14 5 15 32 16 37 17 4 18 3 19 38 20 2 21 39 22 1 23 33 24
REMARK SMILES IDX 34 25 35 26 36 27 17 28 18 30 19 31 29 32 20 33 22 34 21 35
REMARK SMILES IDX 23 36 24 37 28 38 25 39 27 40 26 41
REMARK H PARENT 8 11 17 29
ROOT
ATOM      1  C   UNL     1      25.910   3.776  51.794  1.00  0.00     0.042 A 
ATOM      2  C   UNL     1      25.271   4.170  50.609  1.00  0.00     0.014 A 
ATOM      3  C   UNL     1      24.136   4.982  50.630  1.00  0.00     0.006 A 
ATOM      4  C   UNL     1      23.547   5.362  51.826  1.00  0.00    -0.027 A 
ATOM      5  C   UNL     1      22.305   6.242  51.834  1.00  0.00     0.046 C 
ATOM      6  C   UNL     1      24.118   4.888  53.006  1.00  0.00     0.045 A 
ATOM      7  C   UNL     1      25.271   4.095  52.964  1.00  0.00     0.040 A 
ENDROOT
BRANCH   1   8
ATOM      8  C   UNL     1      27.032   2.820  51.869  1.00  0.00     0.255 C 
ATOM      9  O   UNL     1      27.777   2.819  50.919  1.00  0.00    -0.269 OA
ATOM     10  N   UNL     1      27.246   2.252  53.065  1.00  0.00    -0.322 N 
ATOM     11  H   UNL     1      26.576   2.473  53.815  1.00  0.00     0.170 HD
BRANCH  10  12
ATOM     12  C   UNL     1      28.290   1.392  53.385  1.00  0.00     0.044 A 
ATOM     13  C   UNL     1      29.605   1.639  52.920  1.00  0.00     0.052 A 
ATOM     14  C   UNL     1      28.040   0.188  54.079  1.00  0.00     0.039 A 
ATOM     15  C   UNL     1      30.663   0.786  53.245  1.00  0.00     0.049 A 
ATOM     16  C   UNL     1      29.123  -0.670  54.428  1.00  0.00     0.060 A 
ATOM     17  C   UNL     1      30.410  -0.371  53.974  1.00  0.00     0.039 A 
BRANCH  15  18
ATOM     18  N   UNL     1      31.976   1.045  52.824  1.00  0.00    -0.306 N 
ATOM     19  C   UNL     1      32.636   0.591  51.684  1.00  0.00     0.116 A 
ATOM     20  C   UNL     1      32.913   1.723  53.497  1.00  0.00     0.204 A 
ATOM     21  C   UNL     1      33.915   1.023  51.736  1.00  0.00     0.056 A 
ATOM     22  N   UNL     1      34.059   1.757  52.862  1.00  0.00    -0.242 NA
ATOM     23  C   UNL     1      35.012   0.804  50.723  1.00  0.00     0.068 C 
ENDBRANCH  15  18
BRANCH  16  24
ATOM     24  C   UNL     1      28.838  -1.907  55.215  1.00  0.00     0.416 C 
ATOM     25  F   UNL     1      27.973  -2.764  54.637  1.00  0.00    -0.166 F 
ATOM     26  F   UNL     1      29.928  -2.656  55.337  1.00  0.00    -0.166 F 
ATOM     27  F   UNL     1      28.262  -1.637  56.405  1.00  0.00    -0.166 F 
ENDBRANCH  16  24
ENDBRANCH  10  12
ENDBRANCH   1   8
BRANCH   6  28
ATOM     28  N   UNL     1      23.641   5.389  54.225  1.00  0.00    -0.324 N 
ATOM     29  H   UNL     1      22.657   5.250  54.494  1.00  0.00     0.170 HD
BRANCH  28  30
ATOM     30  C   UNL     1      24.512   6.080  55.070  1.00  0.00     0.227 A 
ATOM     31  N   UNL     1      25.818   6.272  54.943  1.00  0.00    -0.221 NA
ATOM     32  N   UNL     1      23.798   6.488  56.151  1.00  0.00    -0.213 NA
ATOM     33  C   UNL     1      26.431   6.944  55.936  1.00  0.00     0.117 A 
ATOM     34  C   UNL     1      24.456   7.124  57.127  1.00  0.00     0.077 A 
ATOM     35  C   UNL     1      25.783   7.359  57.036  1.00  0.00     0.049 A 
BRANCH  34  36
ATOM     36  C   UNL     1      23.625   7.581  58.271  1.00  0.00     0.019 A 
ATOM     37  C   UNL     1      24.118   8.487  59.224  1.00  0.00     0.013 A 
ATOM     38  C   UNL     1      22.312   7.099  58.438  1.00  0.00     0.121 A 
ATOM     39  C   UNL     1      23.304   8.859  60.286  1.00  0.00     0.021 A 
ATOM     40  N   UNL     1      21.525   7.449  59.464  1.00  0.00    -0.264 NA
ATOM     41  C   UNL     1      22.013   8.336  60.346  1.00  0.00     0.111 A 
ENDBRANCH  34  36
ENDBRANCH  28  30
ENDBRANCH   6  28
TORSDOF 7
ENDMDL
MODEL 6
REMARK VINA RESULT:   -11.532      2.013      3.082
REMARK INTER + INTRA:         -14.888
REMARK INTER:                 -13.620
REMARK INTRA:                  -1.268
REMARK CONF_INDEPENDENT:        2.088
REMARK UNBOUND:                -1.268
REMARK SMILES Cc1cn(-c2cc(NC(=O)c3ccc(C)c(Nc4nccc(-c5cccnc5)n4)c3)cc(C(F)(F)F)c2)cn1
REMARK SMILES IDX 11 1 12 2 13 3 14 4 15 5 16 6 30 7 9 8 10 9 8 10 7 12 6 13
REMARK SMILES IDX 31 14 5 15 32 16 37 17 4 18 3 19 38 20 2 21 39 22 1 23 33 24
REMARK SMILES IDX 34 25 35 26 36 27 17 28 18 30 19 31 29 32 20 33 22 34 21 35
REMARK SMILES IDX 23 36 24 37 28 38 25 39 27 40 26 41
REMARK H PARENT 8 11 17 29
ROOT
ATOM      1  C   UNL     1      26.999   2.403  52.396  1.00  0.00     0.042 A 
ATOM      2  C   UNL     1      27.150   1.031  52.148  1.00  0.00     0.014 A 
ATOM      3  C   UNL     1      27.924   0.222  52.981  1.00  0.00     0.006 A 
ATOM      4  C   UNL     1      28.642   0.759  54.038  1.00  0.00    -0.027 A 
ATOM      5  C   UNL     1      29.488  -0.134  54.934  1.00  0.00     0.046 C 
ATOM      6  C   UNL     1      28.579   2.138  54.227  1.00  0.00     0.045 A 
ATOM      7  C   UNL     1      27.776   2.929  53.395  1.00  0.00     0.040 A 
ENDROOT
BRANCH   1   8
ATOM      8  C   UNL     1      26.308   3.351  51.500  1.00  0.00     0.255 C 
ATOM      9  O   UNL     1      26.547   3.222  50.324  1.00  0.00    -0.269 OA
ATOM     10  N   UNL     1      25.317   4.069  52.050  1.00  0.00    -0.322 N 
ATOM     11  H   UNL     1      25.161   3.953  53.061  1.00  0.00     0.170 HD
BRANCH  10  12
ATOM     12  C   UNL     1      24.482   4.955  51.380  1.00  0.00     0.044 A 
ATOM     13  C   UNL     1      23.848   6.019  52.069  1.00  0.00     0.052 A 
ATOM     14  C   UNL     1      24.151   4.743  50.024  1.00  0.00     0.039 A 
ATOM     15  C   UNL     1      23.015   6.921  51.402  1.00  0.00     0.049 A 
ATOM     16  C   UNL     1      23.319   5.676  49.341  1.00  0.00     0.060 A 
ATOM     17  C   UNL     1      22.739   6.729  50.052  1.00  0.00     0.039 A 
BRANCH  15  18
ATOM     18  N   UNL     1      22.416   8.002  52.066  1.00  0.00    -0.306 N 
ATOM     19  C   UNL     1      21.525   7.987  53.137  1.00  0.00     0.116 A 
ATOM     20  C   UNL     1      22.511   9.296  51.737  1.00  0.00     0.204 A 
ATOM     21  C   UNL     1      21.146   9.259  53.389  1.00  0.00     0.056 A 
ATOM     22  N   UNL     1      21.799  10.066  52.523  1.00  0.00    -0.242 NA
ATOM     23  C   UNL     1      20.210   9.754  54.465  1.00  0.00     0.068 C 
ENDBRANCH  15  18
BRANCH  16  24
ATOM     24  C   UNL     1      23.034   5.460  47.890  1.00  0.00     0.416 C 
ATOM     25  F   UNL     1      21.782   5.775  47.503  1.00  0.00    -0.166 F 
ATOM     26  F   UNL     1      23.767   6.269  47.135  1.00  0.00    -0.166 F 
ATOM     27  F   UNL     1      23.157   4.166  47.530  1.00  0.00    -0.166 F 
ENDBRANCH  16  24
ENDBRANCH  10  12
ENDBRANCH   1   8
BRANCH   6  28
ATOM     28  N   UNL     1      29.161   2.680  55.380  1.00  0.00    -0.324 N 
ATOM     29  H   UNL     1      28.586   2.868  56.214  1.00  0.00     0.170 HD
BRANCH  28  30
ATOM     30  C   UNL     1      30.528   2.963  55.391  1.00  0.00     0.227 A 
ATOM     31  N   UNL     1      31.183   3.880  56.093  1.00  0.00    -0.221 NA
ATOM     32  N   UNL     1      31.121   2.166  54.465  1.00  0.00    -0.213 NA
ATOM     33  C   UNL     1      32.510   3.972  55.879  1.00  0.00     0.117 A 
ATOM     34  C   UNL     1      32.436   2.316  54.266  1.00  0.00     0.077 A 
ATOM     35  C   UNL     1      33.149   3.223  54.967  1.00  0.00     0.049 A 
BRANCH  34  36
ATOM     36  C   UNL     1      33.043   1.397  53.268  1.00  0.00     0.019 A 
ATOM     37  C   UNL     1      34.233   1.722  52.597  1.00  0.00     0.013 A 
ATOM     38  C   UNL     1      32.425   0.170  52.957  1.00  0.00     0.121 A 
ATOM     39  C   UNL     1      34.741   0.835  51.656  1.00  0.00     0.021 A 
ATOM     40  N   UNL     1      32.906  -0.685  52.045  1.00  0.00    -0.264 NA
ATOM     41  C   UNL     1      34.059  -0.361  51.437  1.00  0.00     0.111 A 
ENDBRANCH  34  36
ENDBRANCH  28  30
ENDBRANCH   6  28
TORSDOF 7
ENDMDL
MODEL 7
REMARK VINA RESULT:   -11.091      4.466      7.903
REMARK INTER + INTRA:         -14.136
REMARK INTER:                 -13.179
REMARK INTRA:                  -0.957
REMARK CONF_INDEPENDENT:        2.088
REMARK UNBOUND:                -0.957
REMARK SMILES Cc1cn(-c2cc(NC(=O)c3ccc(C)c(Nc4nccc(-c5cccnc5)n4)c3)cc(C(F)(F)F)c2)cn1
REMARK SMILES IDX 11 1 12 2 13 3 14 4 15 5 16 6 30 7 9 8 10 9 8 10 7 12 6 13
REMARK SMILES IDX 31 14 5 15 32 16 37 17 4 18 3 19 38 20 2 21 39 22 1 23 33 24
REMARK SMILES IDX 34 25 35 26 36 27 17 28 18 30 19 31 29 32 20 33 22 34 21 35
REMARK SMILES IDX 23 36 24 37 28 38 25 39 27 40 26 41
REMARK H PARENT 8 11 17 29
ROOT
ATOM      1  C   UNL     1      33.924  -0.521  50.769  1.00  0.00     0.042 A 
ATOM      2  C   UNL     1      33.941  -1.761  50.113  1.00  0.00     0.014 A 
ATOM      3  C   UNL     1      34.956  -2.093  49.214  1.00  0.00     0.006 A 
ATOM      4  C   UNL     1      35.940  -1.180  48.871  1.00  0.00    -0.027 A 
ATOM      5  C   UNL     1      37.036  -1.554  47.883  1.00  0.00     0.046 C 
ATOM      6  C   UNL     1      35.869   0.090  49.441  1.00  0.00     0.045 A 
ATOM      7  C   UNL     1      34.857   0.396  50.360  1.00  0.00     0.040 A 
ENDROOT
BRANCH   1   8
ATOM      8  C   UNL     1      32.828  -0.039  51.633  1.00  0.00     0.255 C 
ATOM      9  O   UNL     1      32.965   1.077  52.070  1.00  0.00    -0.269 OA
ATOM     10  N   UNL     1      31.706  -0.775  51.632  1.00  0.00    -0.322 N 
ATOM     11  H   UNL     1      31.721  -1.648  51.085  1.00  0.00     0.170 HD
BRANCH  10  12
ATOM     12  C   UNL     1      30.528  -0.468  52.300  1.00  0.00     0.044 A 
ATOM     13  C   UNL     1      29.747   0.652  51.921  1.00  0.00     0.052 A 
ATOM     14  C   UNL     1      30.145  -1.193  53.450  1.00  0.00     0.039 A 
ATOM     15  C   UNL     1      28.555   0.963  52.581  1.00  0.00     0.049 A 
ATOM     16  C   UNL     1      28.919  -0.888  54.107  1.00  0.00     0.060 A 
ATOM     17  C   UNL     1      28.164   0.206  53.681  1.00  0.00     0.039 A 
BRANCH  15  18
ATOM     18  N   UNL     1      27.753   2.044  52.186  1.00  0.00    -0.306 N 
ATOM     19  C   UNL     1      26.835   2.774  52.938  1.00  0.00     0.116 A 
ATOM     20  C   UNL     1      27.639   2.548  50.951  1.00  0.00     0.204 A 
ATOM     21  C   UNL     1      26.233   3.666  52.121  1.00  0.00     0.056 A 
ATOM     22  N   UNL     1      26.774   3.530  50.889  1.00  0.00    -0.242 NA
ATOM     23  C   UNL     1      25.182   4.689  52.476  1.00  0.00     0.068 C 
ENDBRANCH  15  18
BRANCH  16  24
ATOM     24  C   UNL     1      28.509  -1.711  55.285  1.00  0.00     0.416 C 
ATOM     25  F   UNL     1      27.611  -2.680  55.018  1.00  0.00    -0.166 F 
ATOM     26  F   UNL     1      29.533  -2.409  55.761  1.00  0.00    -0.166 F 
ATOM     27  F   UNL     1      27.900  -0.974  56.238  1.00  0.00    -0.166 F 
ENDBRANCH  16  24
ENDBRANCH  10  12
ENDBRANCH   1   8
BRANCH   6  28
ATOM     28  N   UNL     1      36.937   0.973  49.237  1.00  0.00    -0.324 N 
ATOM     29  H   UNL     1      36.759   1.954  48.982  1.00  0.00     0.170 HD
BRANCH  28  30
ATOM     30  C   UNL     1      38.247   0.511  49.384  1.00  0.00     0.227 A 
ATOM     31  N   UNL     1      38.782  -0.170  50.390  1.00  0.00    -0.221 NA
ATOM     32  N   UNL     1      38.961   0.952  48.317  1.00  0.00    -0.213 NA
ATOM     33  C   UNL     1      40.095  -0.455  50.298  1.00  0.00     0.117 A 
ATOM     34  C   UNL     1      40.269   0.672  48.285  1.00  0.00     0.077 A 
ATOM     35  C   UNL     1      40.856  -0.034  49.276  1.00  0.00     0.049 A 
BRANCH  34  36
ATOM     36  C   UNL     1      40.999   1.146  47.080  1.00  0.00     0.019 A 
ATOM     37  C   UNL     1      40.852   2.457  46.600  1.00  0.00     0.013 A 
ATOM     38  C   UNL     1      41.853   0.277  46.373  1.00  0.00     0.121 A 
ATOM     39  C   UNL     1      41.540   2.838  45.455  1.00  0.00     0.021 A 
ATOM     40  N   UNL     1      42.512   0.636  45.264  1.00  0.00    -0.264 NA
ATOM     41  C   UNL     1      42.373   1.903  44.842  1.00  0.00     0.111 A 
ENDBRANCH  34  36
ENDBRANCH  28  30
ENDBRANCH   6  28
TORSDOF 7
ENDMDL
MODEL 8
REMARK VINA RESULT:   -11.061      3.654     12.084
REMARK INTER + INTRA:         -14.356
REMARK INTER:                 -13.149
REMARK INTRA:                  -1.207
REMARK CONF_INDEPENDENT:        2.088
REMARK UNBOUND:                -1.207
REMARK SMILES Cc1cn(-c2cc(NC(=O)c3ccc(C)c(Nc4nccc(-c5cccnc5)n4)c3)cc(C(F)(F)F)c2)cn1
REMARK SMILES IDX 11 1 12 2 13 3 14 4 15 5 16 6 30 7 9 8 10 9 8 10 7 12 6 13
REMARK SMILES IDX 31 14 5 15 32 16 37 17 4 18 3 19 38 20 2 21 39 22 1 23 33 24
REMARK SMILES IDX 34 25 35 26 36 27 17 28 18 30 19 31 29 32 20 33 22 34 21 35
REMARK SMILES IDX 23 36 24 37 28 38 25 39 27 40 26 41
REMARK H PARENT 8 11 17 29
ROOT
ATOM      1  C   UNL     1      26.067   3.520  51.649  1.00  0.00     0.042 A 
ATOM      2  C   UNL     1      25.449   3.887  50.445  1.00  0.00     0.014 A 
ATOM      3  C   UNL     1      24.198   4.508  50.429  1.00  0.00     0.006 A 
ATOM      4  C   UNL     1      23.482   4.709  51.598  1.00  0.00    -0.027 A 
ATOM      5  C   UNL     1      22.116   5.380  51.565  1.00  0.00     0.046 C 
ATOM      6  C   UNL     1      24.046   4.253  52.788  1.00  0.00     0.045 A 
ATOM      7  C   UNL     1      25.313   3.655  52.785  1.00  0.00     0.040 A 
ENDROOT
BRANCH   1   8
ATOM      8  C   UNL     1      27.322   2.750  51.752  1.00  0.00     0.255 C 
ATOM      9  O   UNL     1      28.246   3.175  51.102  1.00  0.00    -0.269 OA
ATOM     10  N   UNL     1      27.376   1.833  52.729  1.00  0.00    -0.322 N 
ATOM     11  H   UNL     1      26.520   1.691  53.285  1.00  0.00     0.170 HD
BRANCH  10  12
ATOM     12  C   UNL     1      28.479   1.056  53.061  1.00  0.00     0.044 A 
ATOM     13  C   UNL     1      29.761   1.354  52.537  1.00  0.00     0.052 A 
ATOM     14  C   UNL     1      28.325  -0.118  53.830  1.00  0.00     0.039 A 
ATOM     15  C   UNL     1      30.879   0.584  52.872  1.00  0.00     0.049 A 
ATOM     16  C   UNL     1      29.469  -0.887  54.189  1.00  0.00     0.060 A 
ATOM     17  C   UNL     1      30.720  -0.541  53.674  1.00  0.00     0.039 A 
BRANCH  15  18
ATOM     18  N   UNL     1      32.160   0.896  52.392  1.00  0.00    -0.306 N 
ATOM     19  C   UNL     1      32.778   0.482  51.214  1.00  0.00     0.116 A 
ATOM     20  C   UNL     1      33.105   1.597  53.029  1.00  0.00     0.204 A 
ATOM     21  C   UNL     1      34.042   0.958  51.210  1.00  0.00     0.056 A 
ATOM     22  N   UNL     1      34.217   1.681  52.339  1.00  0.00    -0.242 NA
ATOM     23  C   UNL     1      35.095   0.792  50.141  1.00  0.00     0.068 C 
ENDBRANCH  15  18
BRANCH  16  24
ATOM     24  C   UNL     1      29.285  -2.092  55.054  1.00  0.00     0.416 C 
ATOM     25  F   UNL     1      28.657  -3.128  54.463  1.00  0.00    -0.166 F 
ATOM     26  F   UNL     1      30.455  -2.628  55.379  1.00  0.00    -0.166 F 
ATOM     27  F   UNL     1      28.518  -1.835  56.134  1.00  0.00    -0.166 F 
ENDBRANCH  16  24
ENDBRANCH  10  12
ENDBRANCH   1   8
BRANCH   6  28
ATOM     28  N   UNL     1      23.419   4.589  53.995  1.00  0.00    -0.324 N 
ATOM     29  H   UNL     1      22.808   3.910  54.470  1.00  0.00     0.170 HD
BRANCH  28  30
ATOM     30  C   UNL     1      23.630   5.853  54.549  1.00  0.00     0.227 A 
ATOM     31  N   UNL     1      24.592   6.252  55.371  1.00  0.00    -0.221 NA
ATOM     32  N   UNL     1      22.600   6.649  54.163  1.00  0.00    -0.213 NA
ATOM     33  C   UNL     1      24.536   7.529  55.795  1.00  0.00     0.117 A 
ATOM     34  C   UNL     1      22.570   7.901  54.635  1.00  0.00     0.077 A 
ATOM     35  C   UNL     1      23.536   8.359  55.460  1.00  0.00     0.049 A 
BRANCH  34  36
ATOM     36  C   UNL     1      21.442   8.742  54.155  1.00  0.00     0.019 A 
ATOM     37  C   UNL     1      20.121   8.505  54.567  1.00  0.00     0.013 A 
ATOM     38  C   UNL     1      21.672   9.799  53.253  1.00  0.00     0.121 A 
ATOM     39  C   UNL     1      19.104   9.308  54.066  1.00  0.00     0.021 A 
ATOM     40  N   UNL     1      20.695  10.571  52.761  1.00  0.00    -0.264 NA
ATOM     41  C   UNL     1      19.444  10.339  53.191  1.00  0.00     0.111 A 
ENDBRANCH  34  36
ENDBRANCH  28  30
ENDBRANCH   6  28
TORSDOF 7
ENDMDL
MODEL 9
REMARK VINA RESULT:   -11.023      3.931     11.700
REMARK INTER + INTRA:         -14.193
REMARK INTER:                 -13.111
REMARK INTRA:                  -1.082
REMARK CONF_INDEPENDENT:        2.088
REMARK UNBOUND:                -1.082
REMARK SMILES Cc1cn(-c2cc(NC(=O)c3ccc(C)c(Nc4nccc(-c5cccnc5)n4)c3)cc(C(F)(F)F)c2)cn1
REMARK SMILES IDX 11 1 12 2 13 3 14 4 15 5 16 6 30 7 9 8 10 9 8 10 7 12 6 13
REMARK SMILES IDX 31 14 5 15 32 16 37 17 4 18 3 19 38 20 2 21 39 22 1 23 33 24
REMARK SMILES IDX 34 25 35 26 36 27 17 28 18 30 19 31 29 32 20 33 22 34 21 35
REMARK SMILES IDX 23 36 24 37 28 38 25 39 27 40 26 41
REMARK H PARENT 8 11 17 29
ROOT
ATOM      1  C   UNL     1      25.798   3.535  51.889  1.00  0.00     0.042 A 
ATOM      2  C   UNL     1      24.926   3.338  50.808  1.00  0.00     0.014 A 
ATOM      3  C   UNL     1      23.592   3.744  50.866  1.00  0.00     0.006 A 
ATOM      4  C   UNL     1      23.055   4.282  52.025  1.00  0.00    -0.027 A 
ATOM      5  C   UNL     1      21.596   4.714  52.077  1.00  0.00     0.046 C 
ATOM      6  C   UNL     1      23.890   4.385  53.136  1.00  0.00     0.045 A 
ATOM      7  C   UNL     1      25.232   3.995  53.049  1.00  0.00     0.040 A 
ENDROOT
BRANCH   1   8
ATOM      8  C   UNL     1      27.181   3.025  51.960  1.00  0.00     0.255 C 
ATOM      9  O   UNL     1      27.740   2.892  50.899  1.00  0.00    -0.269 OA
ATOM     10  N   UNL     1      27.743   3.007  53.178  1.00  0.00    -0.322 N 
ATOM     11  H   UNL     1      27.148   3.284  53.971  1.00  0.00     0.170 HD
BRANCH  10  12
ATOM     12  C   UNL     1      29.054   2.648  53.467  1.00  0.00     0.044 A 
ATOM     13  C   UNL     1      29.744   1.708  52.662  1.00  0.00     0.052 A 
ATOM     14  C   UNL     1      29.686   3.119  54.638  1.00  0.00     0.039 A 
ATOM     15  C   UNL     1      31.066   1.348  52.939  1.00  0.00     0.049 A 
ATOM     16  C   UNL     1      31.040   2.768  54.906  1.00  0.00     0.060 A 
ATOM     17  C   UNL     1      31.694   1.862  54.069  1.00  0.00     0.039 A 
BRANCH  15  18
ATOM     18  N   UNL     1      31.773   0.450  52.124  1.00  0.00    -0.306 N 
ATOM     19  C   UNL     1      31.309  -0.312  51.054  1.00  0.00     0.116 A 
ATOM     20  C   UNL     1      33.046   0.067  52.271  1.00  0.00     0.204 A 
ATOM     21  C   UNL     1      32.321  -1.096  50.623  1.00  0.00     0.056 A 
ATOM     22  N   UNL     1      33.409  -0.820  51.377  1.00  0.00    -0.242 NA
ATOM     23  C   UNL     1      32.313  -2.079  49.478  1.00  0.00     0.068 C 
ENDBRANCH  15  18
BRANCH  16  24
ATOM     24  C   UNL     1      31.704   3.330  56.121  1.00  0.00     0.416 C 
ATOM     25  F   UNL     1      31.105   4.418  56.646  1.00  0.00    -0.166 F 
ATOM     26  F   UNL     1      31.651   2.472  57.133  1.00  0.00    -0.166 F 
ATOM     27  F   UNL     1      32.959   3.754  55.870  1.00  0.00    -0.166 F 
ENDBRANCH  16  24
ENDBRANCH  10  12
ENDBRANCH   1   8
BRANCH   6  28
ATOM     28  N   UNL     1      23.419   5.072  54.263  1.00  0.00    -0.324 N 
ATOM     29  H   UNL     1      22.432   4.992  54.544  1.00  0.00     0.170 HD
BRANCH  28  30
ATOM     30  C   UNL     1      24.299   5.867  55.000  1.00  0.00     0.227 A 
ATOM     31  N   UNL     1      25.573   6.144  54.756  1.00  0.00    -0.221 NA
ATOM     32  N   UNL     1      23.644   6.280  56.115  1.00  0.00    -0.213 NA
ATOM     33  C   UNL     1      26.210   6.910  55.662  1.00  0.00     0.117 A 
ATOM     34  C   UNL     1      24.328   7.012  57.002  1.00  0.00     0.077 A 
ATOM     35  C   UNL     1      25.621   7.336  56.791  1.00  0.00     0.049 A 
BRANCH  34  36
ATOM     36  C   UNL     1      23.557   7.470  58.188  1.00  0.00     0.019 A 
ATOM     37  C   UNL     1      24.106   8.361  59.123  1.00  0.00     0.013 A 
ATOM     38  C   UNL     1      22.247   7.003  58.413  1.00  0.00     0.121 A 
ATOM     39  C   UNL     1      23.348   8.735  60.226  1.00  0.00     0.021 A 
ATOM     40  N   UNL     1      21.515   7.353  59.478  1.00  0.00    -0.264 NA
ATOM     41  C   UNL     1      22.055   8.227  60.343  1.00  0.00     0.111 A 
ENDBRANCH  34  36
ENDBRANCH  28  30
ENDBRANCH   6  28
TORSDOF 7
ENDMDL
MODEL 10
REMARK VINA RESULT:   -10.996      1.730      2.607
REMARK INTER + INTRA:         -14.268
REMARK INTER:                 -13.084
REMARK INTRA:                  -1.184
REMARK CONF_INDEPENDENT:        2.088
REMARK UNBOUND:                -1.184
REMARK SMILES Cc1cn(-c2cc(NC(=O)c3ccc(C)c(Nc4nccc(-c5cccnc5)n4)c3)cc(C(F)(F)F)c2)cn1
REMARK SMILES IDX 11 1 12 2 13 3 14 4 15 5 16 6 30 7 9 8 10 9 8 10 7 12 6 13
REMARK SMILES IDX 31 14 5 15 32 16 37 17 4 18 3 19 38 20 2 21 39 22 1 23 33 24
REMARK SMILES IDX 34 25 35 26 36 27 17 28 18 30 19 31 29 32 20 33 22 34 21 35
REMARK SMILES IDX 23 36 24 37 28 38 25 39 27 40 26 41
REMARK H PARENT 8 11 17 29
ROOT
ATOM      1  C   UNL     1      27.053   2.356  52.492  1.00  0.00     0.042 A 
ATOM      2  C   UNL     1      27.181   1.223  51.674  1.00  0.00     0.014 A 
ATOM      3  C   UNL     1      28.111   0.222  51.958  1.00  0.00     0.006 A 
ATOM      4  C   UNL     1      29.002   0.348  53.012  1.00  0.00    -0.027 A 
ATOM      5  C   UNL     1      30.016  -0.749  53.305  1.00  0.00     0.046 C 
ATOM      6  C   UNL     1      28.950   1.519  53.766  1.00  0.00     0.045 A 
ATOM      7  C   UNL     1      27.992   2.500  53.480  1.00  0.00     0.040 A 
ENDROOT
BRANCH   1   8
ATOM      8  C   UNL     1      26.190   3.516  52.197  1.00  0.00     0.255 C 
ATOM      9  O   UNL     1      26.076   3.794  51.028  1.00  0.00    -0.269 OA
ATOM     10  N   UNL     1      25.440   3.969  53.213  1.00  0.00    -0.322 N 
ATOM     11  H   UNL     1      25.573   3.518  54.130  1.00  0.00     0.170 HD
BRANCH  10  12
ATOM     12  C   UNL     1      24.501   4.990  53.142  1.00  0.00     0.044 A 
ATOM     13  C   UNL     1      23.755   5.373  54.284  1.00  0.00     0.052 A 
ATOM     14  C   UNL     1      24.182   5.587  51.903  1.00  0.00     0.039 A 
ATOM     15  C   UNL     1      22.815   6.405  54.225  1.00  0.00     0.049 A 
ATOM     16  C   UNL     1      23.240   6.654  51.849  1.00  0.00     0.060 A 
ATOM     17  C   UNL     1      22.549   7.021  53.006  1.00  0.00     0.039 A 
BRANCH  15  18
ATOM     18  N   UNL     1      22.102   6.820  55.360  1.00  0.00    -0.306 N 
ATOM     19  C   UNL     1      22.577   7.097  56.640  1.00  0.00     0.116 A 
ATOM     20  C   UNL     1      20.774   6.949  55.469  1.00  0.00     0.204 A 
ATOM     21  C   UNL     1      21.519   7.378  57.432  1.00  0.00     0.056 A 
ATOM     22  N   UNL     1      20.403   7.311  56.673  1.00  0.00    -0.242 NA
ATOM     23  C   UNL     1      21.527   7.757  58.893  1.00  0.00     0.068 C 
ENDBRANCH  15  18
BRANCH  16  24
ATOM     24  C   UNL     1      22.967   7.309  50.534  1.00  0.00     0.416 C 
ATOM     25  F   UNL     1      22.616   8.608  50.607  1.00  0.00    -0.166 F 
ATOM     26  F   UNL     1      24.065   7.362  49.790  1.00  0.00    -0.166 F 
ATOM     27  F   UNL     1      21.930   6.740  49.884  1.00  0.00    -0.166 F 
ENDBRANCH  16  24
ENDBRANCH  10  12
ENDBRANCH   1   8
BRANCH   6  28
ATOM     28  N   UNL     1      29.725   1.597  54.930  1.00  0.00    -0.324 N 
ATOM     29  H   UNL     1      29.341   1.284  55.833  1.00  0.00     0.170 HD
BRANCH  28  30
ATOM     30  C   UNL     1      31.024   2.104  54.857  1.00  0.00     0.227 A 
ATOM     31  N   UNL     1      31.575   3.087  55.557  1.00  0.00    -0.221 NA
ATOM     32  N   UNL     1      31.663   1.456  53.849  1.00  0.00    -0.213 NA
ATOM     33  C   UNL     1      32.847   3.408  55.253  1.00  0.00     0.117 A 
ATOM     34  C   UNL     1      32.915   1.832  53.562  1.00  0.00     0.077 A 
ATOM     35  C   UNL     1      33.525   2.815  54.258  1.00  0.00     0.049 A 
BRANCH  34  36
ATOM     36  C   UNL     1      33.582   1.069  52.475  1.00  0.00     0.019 A 
ATOM     37  C   UNL     1      33.406  -0.317  52.335  1.00  0.00     0.013 A 
ATOM     38  C   UNL     1      34.428   1.722  51.558  1.00  0.00     0.121 A 
ATOM     39  C   UNL     1      34.075  -0.982  51.315  1.00  0.00     0.021 A 
ATOM     40  N   UNL     1      35.081   1.085  50.578  1.00  0.00    -0.264 NA
ATOM     41  C   UNL     1      34.875  -0.236  50.451  1.00  0.00     0.111 A 
ENDBRANCH  34  36
ENDBRANCH  28  30
ENDBRANCH   6  28
TORSDOF 7
ENDMDL
MODEL 11
REMARK VINA RESULT:   -10.931      3.587     12.113
REMARK INTER + INTRA:         -14.352
REMARK INTER:                 -13.019
REMARK INTRA:                  -1.333
REMARK CONF_INDEPENDENT:        2.088
REMARK UNBOUND:                -1.333
REMARK SMILES Cc1cn(-c2cc(NC(=O)c3ccc(C)c(Nc4nccc(-c5cccnc5)n4)c3)cc(C(F)(F)F)c2)cn1
REMARK SMILES IDX 11 1 12 2 13 3 14 4 15 5 16 6 30 7 9 8 10 9 8 10 7 12 6 13
REMARK SMILES IDX 31 14 5 15 32 16 37 17 4 18 3 19 38 20 2 21 39 22 1 23 33 24
REMARK SMILES IDX 34 25 35 26 36 27 17 28 18 30 19 31 29 32 20 33 22 34 21 35
REMARK SMILES IDX 23 36 24 37 28 38 25 39 27 40 26 41
REMARK H PARENT 8 11 17 29
ROOT
ATOM      1  C   UNL     1      25.601   3.740  51.879  1.00  0.00     0.042 A 
ATOM      2  C   UNL     1      24.835   3.886  50.713  1.00  0.00     0.014 A 
ATOM      3  C   UNL     1      23.497   4.279  50.766  1.00  0.00     0.006 A 
ATOM      4  C   UNL     1      22.850   4.461  51.978  1.00  0.00    -0.027 A 
ATOM      5  C   UNL     1      21.388   4.883  52.021  1.00  0.00     0.046 C 
ATOM      6  C   UNL     1      23.577   4.217  53.142  1.00  0.00     0.045 A 
ATOM      7  C   UNL     1      24.926   3.847  53.067  1.00  0.00     0.040 A 
ENDROOT
BRANCH   1   8
ATOM      8  C   UNL     1      26.977   3.209  51.923  1.00  0.00     0.255 C 
ATOM      9  O   UNL     1      27.556   3.180  50.865  1.00  0.00    -0.269 OA
ATOM     10  N   UNL     1      27.514   3.057  53.143  1.00  0.00    -0.322 N 
ATOM     11  H   UNL     1      26.906   3.258  53.950  1.00  0.00     0.170 HD
BRANCH  10  12
ATOM     12  C   UNL     1      28.815   2.653  53.418  1.00  0.00     0.044 A 
ATOM     13  C   UNL     1      29.451   1.663  52.629  1.00  0.00     0.052 A 
ATOM     14  C   UNL     1      29.489   3.133  54.562  1.00  0.00     0.039 A 
ATOM     15  C   UNL     1      30.762   1.257  52.891  1.00  0.00     0.049 A 
ATOM     16  C   UNL     1      30.833   2.735  54.815  1.00  0.00     0.060 A 
ATOM     17  C   UNL     1      31.433   1.778  53.993  1.00  0.00     0.039 A 
BRANCH  15  18
ATOM     18  N   UNL     1      31.416   0.309  52.091  1.00  0.00    -0.306 N 
ATOM     19  C   UNL     1      32.782   0.066  51.958  1.00  0.00     0.116 A 
ATOM     20  C   UNL     1      30.849  -0.516  51.202  1.00  0.00     0.204 A 
ATOM     21  C   UNL     1      32.952  -0.882  51.011  1.00  0.00     0.056 A 
ATOM     22  N   UNL     1      31.729  -1.256  50.573  1.00  0.00    -0.242 NA
ATOM     23  C   UNL     1      34.247  -1.491  50.528  1.00  0.00     0.068 C 
ENDBRANCH  15  18
BRANCH  16  24
ATOM     24  C   UNL     1      31.543   3.305  56.000  1.00  0.00     0.416 C 
ATOM     25  F   UNL     1      31.650   2.472  57.055  1.00  0.00    -0.166 F 
ATOM     26  F   UNL     1      32.816   3.556  55.718  1.00  0.00    -0.166 F 
ATOM     27  F   UNL     1      30.907   4.379  56.512  1.00  0.00    -0.166 F 
ENDBRANCH  16  24
ENDBRANCH  10  12
ENDBRANCH   1   8
BRANCH   6  28
ATOM     28  N   UNL     1      22.996   4.550  54.373  1.00  0.00    -0.324 N 
ATOM     29  H   UNL     1      22.430   3.858  54.884  1.00  0.00     0.170 HD
BRANCH  28  30
ATOM     30  C   UNL     1      23.191   5.828  54.901  1.00  0.00     0.227 A 
ATOM     31  N   UNL     1      24.104   6.238  55.772  1.00  0.00    -0.221 NA
ATOM     32  N   UNL     1      22.202   6.626  54.423  1.00  0.00    -0.213 NA
ATOM     33  C   UNL     1      24.041   7.528  56.153  1.00  0.00     0.117 A 
ATOM     34  C   UNL     1      22.162   7.892  54.855  1.00  0.00     0.077 A 
ATOM     35  C   UNL     1      23.079   8.362  55.728  1.00  0.00     0.049 A 
BRANCH  34  36
ATOM     36  C   UNL     1      21.083   8.734  54.276  1.00  0.00     0.019 A 
ATOM     37  C   UNL     1      19.730   8.374  54.386  1.00  0.00     0.013 A 
ATOM     38  C   UNL     1      21.394   9.920  53.582  1.00  0.00     0.121 A 
ATOM     39  C   UNL     1      18.766   9.186  53.803  1.00  0.00     0.021 A 
ATOM     40  N   UNL     1      20.470  10.703  53.011  1.00  0.00    -0.264 NA
ATOM     41  C   UNL     1      19.182  10.348  53.154  1.00  0.00     0.111 A 
ENDBRANCH  34  36
ENDBRANCH  28  30
ENDBRANCH   6  28
TORSDOF 7
ENDMDL
MODEL 12
REMARK VINA RESULT:   -10.882      8.341     15.211
REMARK INTER + INTRA:         -14.278
REMARK INTER:                 -12.970
REMARK INTRA:                  -1.308
REMARK CONF_INDEPENDENT:        2.088
REMARK UNBOUND:                -1.308
REMARK SMILES Cc1cn(-c2cc(NC(=O)c3ccc(C)c(Nc4nccc(-c5cccnc5)n4)c3)cc(C(F)(F)F)c2)cn1
REMARK SMILES IDX 11 1 12 2 13 3 14 4 15 5 16 6 30 7 9 8 10 9 8 10 7 12 6 13
REMARK SMILES IDX 31 14 5 15 32 16 37 17 4 18 3 19 38 20 2 21 39 22 1 23 33 24
REMARK SMILES IDX 34 25 35 26 36 27 17 28 18 30 19 31 29 32 20 33 22 34 21 35
REMARK SMILES IDX 23 36 24 37 28 38 25 39 27 40 26 41
REMARK H PARENT 8 11 17 29
ROOT
ATOM      1  C   UNL     1      35.987  -1.708  49.313  1.00  0.00     0.042 A 
ATOM      2  C   UNL     1      35.195  -2.861  49.202  1.00  0.00     0.014 A 
ATOM      3  C   UNL     1      33.819  -2.823  49.436  1.00  0.00     0.006 A 
ATOM      4  C   UNL     1      33.196  -1.663  49.869  1.00  0.00    -0.027 A 
ATOM      5  C   UNL     1      31.696  -1.638  50.127  1.00  0.00     0.046 C 
ATOM      6  C   UNL     1      33.995  -0.541  50.081  1.00  0.00     0.045 A 
ATOM      7  C   UNL     1      35.369  -0.593  49.816  1.00  0.00     0.040 A 
ENDROOT
BRANCH   1   8
ATOM      8  C   UNL     1      37.459  -1.683  49.209  1.00  0.00     0.255 C 
ATOM      9  O   UNL     1      38.043  -1.322  50.201  1.00  0.00    -0.269 OA
ATOM     10  N   UNL     1      37.987  -2.292  48.136  1.00  0.00    -0.322 N 
ATOM     11  H   UNL     1      37.327  -2.668  47.441  1.00  0.00     0.170 HD
BRANCH  10  12
ATOM     12  C   UNL     1      39.341  -2.462  47.878  1.00  0.00     0.044 A 
ATOM     13  C   UNL     1      39.908  -2.026  46.655  1.00  0.00     0.052 A 
ATOM     14  C   UNL     1      40.159  -3.181  48.777  1.00  0.00     0.039 A 
ATOM     15  C   UNL     1      41.271  -2.183  46.390  1.00  0.00     0.049 A 
ATOM     16  C   UNL     1      41.551  -3.321  48.515  1.00  0.00     0.060 A 
ATOM     17  C   UNL     1      42.076  -2.849  47.310  1.00  0.00     0.039 A 
BRANCH  15  18
ATOM     18  N   UNL     1      41.851  -1.717  45.201  1.00  0.00    -0.306 N 
ATOM     19  C   UNL     1      42.149  -0.408  44.826  1.00  0.00     0.116 A 
ATOM     20  C   UNL     1      42.158  -2.444  44.120  1.00  0.00     0.204 A 
ATOM     21  C   UNL     1      42.617  -0.428  43.559  1.00  0.00     0.056 A 
ATOM     22  N   UNL     1      42.646  -1.715  43.147  1.00  0.00    -0.242 NA
ATOM     23  C   UNL     1      43.090   0.739  42.725  1.00  0.00     0.068 C 
ENDBRANCH  15  18
BRANCH  16  24
ATOM     24  C   UNL     1      42.405  -4.034  49.513  1.00  0.00     0.416 C 
ATOM     25  F   UNL     1      43.508  -3.365  49.901  1.00  0.00    -0.166 F 
ATOM     26  F   UNL     1      41.761  -4.194  50.664  1.00  0.00    -0.166 F 
ATOM     27  F   UNL     1      42.896  -5.195  49.031  1.00  0.00    -0.166 F 
ENDBRANCH  16  24
ENDBRANCH  10  12
ENDBRANCH   1   8
BRANCH   6  28
ATOM     28  N   UNL     1      33.368   0.681  50.359  1.00  0.00    -0.324 N 
ATOM     29  H   UNL     1      33.043   1.284  49.591  1.00  0.00     0.170 HD
BRANCH  28  30
ATOM     30  C   UNL     1      33.187   1.073  51.687  1.00  0.00     0.227 A 
ATOM     31  N   UNL     1      33.888   1.945  52.400  1.00  0.00    -0.221 NA
ATOM     32  N   UNL     1      32.173   0.330  52.202  1.00  0.00    -0.213 NA
ATOM     33  C   UNL     1      33.524   2.107  53.687  1.00  0.00     0.117 A 
ATOM     34  C   UNL     1      31.870   0.502  53.493  1.00  0.00     0.077 A 
ATOM     35  C   UNL     1      32.541   1.391  54.256  1.00  0.00     0.049 A 
BRANCH  34  36
ATOM     36  C   UNL     1      30.731  -0.308  53.999  1.00  0.00     0.019 A 
ATOM     37  C   UNL     1      29.661   0.279  54.693  1.00  0.00     0.013 A 
ATOM     38  C   UNL     1      30.704  -1.703  53.805  1.00  0.00     0.121 A 
ATOM     39  C   UNL     1      28.636  -0.531  55.164  1.00  0.00     0.021 A 
ATOM     40  N   UNL     1      29.723  -2.491  54.264  1.00  0.00    -0.264 NA
ATOM     41  C   UNL     1      28.700  -1.899  54.902  1.00  0.00     0.111 A 
ENDBRANCH  34  36
ENDBRANCH  28  30
ENDBRANCH   6  28
TORSDOF 7
ENDMDL
MODEL 13
REMARK VINA RESULT:   -10.785      4.751     13.551
REMARK INTER + INTRA:         -14.234
REMARK INTER:                 -12.873
REMARK INTRA:                  -1.362
REMARK CONF_INDEPENDENT:        2.088
REMARK UNBOUND:                -1.362
REMARK SMILES Cc1cn(-c2cc(NC(=O)c3ccc(C)c(Nc4nccc(-c5cccnc5)n4)c3)cc(C(F)(F)F)c2)cn1
REMARK SMILES IDX 11 1 12 2 13 3 14 4 15 5 16 6 30 7 9 8 10 9 8 10 7 12 6 13
REMARK SMILES IDX 31 14 5 15 32 16 37 17 4 18 3 19 38 20 2 21 39 22 1 23 33 24
REMARK SMILES IDX 34 25 35 26 36 27 17 28 18 30 19 31 29 32 20 33 22 34 21 35
REMARK SMILES IDX 23 36 24 37 28 38 25 39 27 40 26 41
REMARK H PARENT 8 11 17 29
ROOT
ATOM      1  C   UNL     1      21.039   7.317  54.278  1.00  0.00     0.042 A 
ATOM      2  C   UNL     1      20.869   7.447  55.665  1.00  0.00     0.014 A 
ATOM      3  C   UNL     1      20.129   8.496  56.211  1.00  0.00     0.006 A 
ATOM      4  C   UNL     1      19.604   9.498  55.411  1.00  0.00    -0.027 A 
ATOM      5  C   UNL     1      18.805  10.641  56.022  1.00  0.00     0.046 C 
ATOM      6  C   UNL     1      19.857   9.430  54.042  1.00  0.00     0.045 A 
ATOM      7  C   UNL     1      20.580   8.355  53.510  1.00  0.00     0.040 A 
ENDROOT
BRANCH   1   8
ATOM      8  C   UNL     1      21.906   6.317  53.625  1.00  0.00     0.255 C 
ATOM      9  O   UNL     1      21.900   5.219  54.126  1.00  0.00    -0.269 OA
ATOM     10  N   UNL     1      22.398   6.655  52.423  1.00  0.00    -0.322 N 
ATOM     11  H   UNL     1      22.189   7.604  52.083  1.00  0.00     0.170 HD
BRANCH  10  12
ATOM     12  C   UNL     1      23.163   5.842  51.597  1.00  0.00     0.044 A 
ATOM     13  C   UNL     1      24.243   5.087  52.117  1.00  0.00     0.052 A 
ATOM     14  C   UNL     1      22.958   5.843  50.200  1.00  0.00     0.039 A 
ATOM     15  C   UNL     1      25.013   4.259  51.296  1.00  0.00     0.049 A 
ATOM     16  C   UNL     1      23.729   4.981  49.367  1.00  0.00     0.060 A 
ATOM     17  C   UNL     1      24.765   4.231  49.927  1.00  0.00     0.039 A 
BRANCH  15  18
ATOM     18  N   UNL     1      26.058   3.475  51.808  1.00  0.00    -0.306 N 
ATOM     19  C   UNL     1      26.409   3.246  53.137  1.00  0.00     0.116 A 
ATOM     20  C   UNL     1      27.007   2.847  51.105  1.00  0.00     0.204 A 
ATOM     21  C   UNL     1      27.534   2.498  53.153  1.00  0.00     0.056 A 
ATOM     22  N   UNL     1      27.874   2.232  51.872  1.00  0.00    -0.242 NA
ATOM     23  C   UNL     1      28.287   1.978  54.354  1.00  0.00     0.068 C 
ENDBRANCH  15  18
BRANCH  16  24
ATOM     24  C   UNL     1      23.450   4.958  47.900  1.00  0.00     0.416 C 
ATOM     25  F   UNL     1      24.526   5.156  47.112  1.00  0.00    -0.166 F 
ATOM     26  F   UNL     1      23.042   3.755  47.511  1.00  0.00    -0.166 F 
ATOM     27  F   UNL     1      22.601   5.936  47.523  1.00  0.00    -0.166 F 
ENDBRANCH  16  24
ENDBRANCH  10  12
ENDBRANCH   1   8
BRANCH   6  28
ATOM     28  N   UNL     1      19.203  10.337  53.197  1.00  0.00    -0.324 N 
ATOM     29  H   UNL     1      19.746  10.948  52.572  1.00  0.00     0.170 HD
BRANCH  28  30
ATOM     30  C   UNL     1      17.808  10.403  53.210  1.00  0.00     0.227 A 
ATOM     31  N   UNL     1      17.025  11.472  53.127  1.00  0.00    -0.221 NA
ATOM     32  N   UNL     1      17.337   9.145  53.410  1.00  0.00    -0.213 NA
ATOM     33  C   UNL     1      15.698  11.258  53.210  1.00  0.00     0.117 A 
ATOM     34  C   UNL     1      16.013   8.987  53.518  1.00  0.00     0.077 A 
ATOM     35  C   UNL     1      15.174  10.040  53.422  1.00  0.00     0.049 A 
BRANCH  34  36
ATOM     36  C   UNL     1      15.547   7.588  53.701  1.00  0.00     0.019 A 
ATOM     37  C   UNL     1      14.776   7.208  54.812  1.00  0.00     0.013 A 
ATOM     38  C   UNL     1      15.882   6.593  52.761  1.00  0.00     0.121 A 
ATOM     39  C   UNL     1      14.390   5.881  54.943  1.00  0.00     0.021 A 
ATOM     40  N   UNL     1      15.519   5.310  52.887  1.00  0.00    -0.264 NA
ATOM     41  C   UNL     1      14.761   4.981  53.945  1.00  0.00     0.111 A 
ENDBRANCH  34  36
ENDBRANCH  28  30
ENDBRANCH   6  28
TORSDOF 7
ENDMDL
MODEL 14
REMARK VINA RESULT:   -10.698      6.760     14.727
REMARK INTER + INTRA:         -13.758
REMARK INTER:                 -12.786
REMARK INTRA:                  -0.972
REMARK CONF_INDEPENDENT:        2.088
REMARK UNBOUND:                -0.972
REMARK SMILES Cc1cn(-c2cc(NC(=O)c3ccc(C)c(Nc4nccc(-c5cccnc5)n4)c3)cc(C(F)(F)F)c2)cn1
REMARK SMILES IDX 11 1 12 2 13 3 14 4 15 5 16 6 30 7 9 8 10 9 8 10 7 12 6 13
REMARK SMILES IDX 31 14 5 15 32 16 37 17 4 18 3 19 38 20 2 21 39 22 1 23 33 24
REMARK SMILES IDX 34 25 35 26 36 27 17 28 18 30 19 31 29 32 20 33 22 34 21 35
REMARK SMILES IDX 23 36 24 37 28 38 25 39 27 40 26 41
REMARK H PARENT 8 11 17 29
ROOT
ATOM      1  C   UNL     1      35.651  -1.253  49.671  1.00  0.00     0.042 A 
ATOM      2  C   UNL     1      34.869  -2.175  48.959  1.00  0.00     0.014 A 
ATOM      3  C   UNL     1      33.476  -2.170  49.051  1.00  0.00     0.006 A 
ATOM      4  C   UNL     1      32.816  -1.308  49.912  1.00  0.00    -0.027 A 
ATOM      5  C   UNL     1      31.297  -1.319  50.007  1.00  0.00     0.046 C 
ATOM      6  C   UNL     1      33.594  -0.460  50.698  1.00  0.00     0.045 A 
ATOM      7  C   UNL     1      34.989  -0.463  50.574  1.00  0.00     0.040 A 
ENDROOT
BRANCH   1   8
ATOM      8  C   UNL     1      37.126  -1.269  49.732  1.00  0.00     0.255 C 
ATOM      9  O   UNL     1      37.610  -0.744  50.705  1.00  0.00    -0.269 OA
ATOM     10  N   UNL     1      37.747  -2.068  48.851  1.00  0.00    -0.322 N 
ATOM     11  H   UNL     1      37.154  -2.553  48.162  1.00  0.00     0.170 HD
BRANCH  10  12
ATOM     12  C   UNL     1      39.114  -2.300  48.782  1.00  0.00     0.044 A 
ATOM     13  C   UNL     1      39.906  -2.334  49.957  1.00  0.00     0.052 A 
ATOM     14  C   UNL     1      39.766  -2.388  47.533  1.00  0.00     0.039 A 
ATOM     15  C   UNL     1      41.281  -2.577  49.899  1.00  0.00     0.049 A 
ATOM     16  C   UNL     1      41.163  -2.658  47.477  1.00  0.00     0.060 A 
ATOM     17  C   UNL     1      41.901  -2.713  48.662  1.00  0.00     0.039 A 
BRANCH  15  18
ATOM     18  N   UNL     1      42.066  -2.654  51.060  1.00  0.00    -0.306 N 
ATOM     19  C   UNL     1      42.097  -3.652  52.032  1.00  0.00     0.116 A 
ATOM     20  C   UNL     1      42.900  -1.716  51.526  1.00  0.00     0.204 A 
ATOM     21  C   UNL     1      42.942  -3.261  53.011  1.00  0.00     0.056 A 
ATOM     22  N   UNL     1      43.458  -2.063  52.660  1.00  0.00    -0.242 NA
ATOM     23  C   UNL     1      43.320  -4.012  54.265  1.00  0.00     0.068 C 
ENDBRANCH  15  18
BRANCH  16  24
ATOM     24  C   UNL     1      41.817  -2.806  46.141  1.00  0.00     0.416 C 
ATOM     25  F   UNL     1      41.801  -4.055  45.635  1.00  0.00    -0.166 F 
ATOM     26  F   UNL     1      41.159  -2.125  45.210  1.00  0.00    -0.166 F 
ATOM     27  F   UNL     1      43.130  -2.498  46.175  1.00  0.00    -0.166 F 
ENDBRANCH  16  24
ENDBRANCH  10  12
ENDBRANCH   1   8
BRANCH   6  28
ATOM     28  N   UNL     1      32.948   0.528  51.453  1.00  0.00    -0.324 N 
ATOM     29  H   UNL     1      33.190   1.521  51.324  1.00  0.00     0.170 HD
BRANCH  28  30
ATOM     30  C   UNL     1      31.972   0.157  52.380  1.00  0.00     0.227 A 
ATOM     31  N   UNL     1      32.015  -0.804  53.294  1.00  0.00    -0.221 NA
ATOM     32  N   UNL     1      30.872   0.918  52.147  1.00  0.00    -0.213 NA
ATOM     33  C   UNL     1      30.908  -0.982  54.038  1.00  0.00     0.117 A 
ATOM     34  C   UNL     1      29.784   0.683  52.891  1.00  0.00     0.077 A 
ATOM     35  C   UNL     1      29.785  -0.272  53.846  1.00  0.00     0.049 A 
BRANCH  34  36
ATOM     36  C   UNL     1      28.619   1.565  52.622  1.00  0.00     0.019 A 
ATOM     37  C   UNL     1      27.486   1.561  53.451  1.00  0.00     0.013 A 
ATOM     38  C   UNL     1      28.616   2.426  51.506  1.00  0.00     0.121 A 
ATOM     39  C   UNL     1      26.416   2.389  53.136  1.00  0.00     0.021 A 
ATOM     40  N   UNL     1      27.584   3.220  51.193  1.00  0.00    -0.264 NA
ATOM     41  C   UNL     1      26.525   3.215  52.018  1.00  0.00     0.111 A 
ENDBRANCH  34  36
ENDBRANCH  28  30
ENDBRANCH   6  28
TORSDOF 7
ENDMDL
MODEL 15
REMARK VINA RESULT:   -10.631      3.502      5.545
REMARK INTER + INTRA:         -13.803
REMARK INTER:                 -12.719
REMARK INTRA:                  -1.084
REMARK CONF_INDEPENDENT:        2.088
REMARK UNBOUND:                -1.084
REMARK SMILES Cc1cn(-c2cc(NC(=O)c3ccc(C)c(Nc4nccc(-c5cccnc5)n4)c3)cc(C(F)(F)F)c2)cn1
REMARK SMILES IDX 11 1 12 2 13 3 14 4 15 5 16 6 30 7 9 8 10 9 8 10 7 12 6 13
REMARK SMILES IDX 31 14 5 15 32 16 37 17 4 18 3 19 38 20 2 21 39 22 1 23 33 24
REMARK SMILES IDX 34 25 35 26 36 27 17 28 18 30 19 31 29 32 20 33 22 34 21 35
REMARK SMILES IDX 23 36 24 37 28 38 25 39 27 40 26 41
REMARK H PARENT 8 11 17 29
ROOT
ATOM      1  C   UNL     1      27.935   1.909  52.513  1.00  0.00     0.042 A 
ATOM      2  C   UNL     1      28.212   0.732  51.802  1.00  0.00     0.014 A 
ATOM      3  C   UNL     1      29.173  -0.177  52.247  1.00  0.00     0.006 A 
ATOM      4  C   UNL     1      29.951   0.089  53.363  1.00  0.00    -0.027 A 
ATOM      5  C   UNL     1      31.001  -0.908  53.833  1.00  0.00     0.046 C 
ATOM      6  C   UNL     1      29.752   1.305  54.014  1.00  0.00     0.045 A 
ATOM      7  C   UNL     1      28.765   2.192  53.566  1.00  0.00     0.040 A 
ENDROOT
BRANCH   1   8
ATOM      8  C   UNL     1      27.031   2.981  52.050  1.00  0.00     0.255 C 
ATOM      9  O   UNL     1      27.071   3.218  50.868  1.00  0.00    -0.269 OA
ATOM     10  N   UNL     1      26.101   3.389  52.926  1.00  0.00    -0.322 N 
ATOM     11  H   UNL     1      26.132   2.975  53.868  1.00  0.00     0.170 HD
BRANCH  10  12
ATOM     12  C   UNL     1      25.100   4.320  52.679  1.00  0.00     0.044 A 
ATOM     13  C   UNL     1      24.303   4.829  53.734  1.00  0.00     0.052 A 
ATOM     14  C   UNL     1      24.773   4.689  51.356  1.00  0.00     0.039 A 
ATOM     15  C   UNL     1      23.300   5.773  53.497  1.00  0.00     0.049 A 
ATOM     16  C   UNL     1      23.767   5.668  51.118  1.00  0.00     0.060 A 
ATOM     17  C   UNL     1      23.025   6.167  52.191  1.00  0.00     0.039 A 
BRANCH  15  18
ATOM     18  N   UNL     1      22.534   6.315  54.540  1.00  0.00    -0.306 N 
ATOM     19  C   UNL     1      22.738   6.222  55.916  1.00  0.00     0.116 A 
ATOM     20  C   UNL     1      21.373   6.970  54.425  1.00  0.00     0.204 A 
ATOM     21  C   UNL     1      21.701   6.824  56.538  1.00  0.00     0.056 A 
ATOM     22  N   UNL     1      20.875   7.315  55.587  1.00  0.00    -0.242 NA
ATOM     23  C   UNL     1      21.482   6.997  58.021  1.00  0.00     0.068 C 
ENDBRANCH  15  18
BRANCH  16  24
ATOM     24  C   UNL     1      23.483   6.084  49.711  1.00  0.00     0.416 C 
ATOM     25  F   UNL     1      23.296   7.407  49.535  1.00  0.00    -0.166 F 
ATOM     26  F   UNL     1      24.527   5.848  48.924  1.00  0.00    -0.166 F 
ATOM     27  F   UNL     1      22.345   5.540  49.234  1.00  0.00    -0.166 F 
ENDBRANCH  16  24
ENDBRANCH  10  12
ENDBRANCH   1   8
BRANCH   6  28
ATOM     28  N   UNL     1      30.407   1.524  55.233  1.00  0.00    -0.324 N 
ATOM     29  H   UNL     1      30.172   0.955  56.058  1.00  0.00     0.170 HD
BRANCH  28  30
ATOM     30  C   UNL     1      31.382   2.520  55.320  1.00  0.00     0.227 A 
ATOM     31  N   UNL     1      32.273   2.893  54.410  1.00  0.00    -0.221 NA
ATOM     32  N   UNL     1      31.335   3.034  56.576  1.00  0.00    -0.213 NA
ATOM     33  C   UNL     1      33.137   3.861  54.771  1.00  0.00     0.117 A 
ATOM     34  C   UNL     1      32.234   3.971  56.898  1.00  0.00     0.077 A 
ATOM     35  C   UNL     1      33.150   4.397  56.002  1.00  0.00     0.049 A 
BRANCH  34  36
ATOM     36  C   UNL     1      32.118   4.527  58.272  1.00  0.00     0.019 A 
ATOM     37  C   UNL     1      31.653   5.831  58.501  1.00  0.00     0.013 A 
ATOM     38  C   UNL     1      32.492   3.755  59.389  1.00  0.00     0.121 A 
ATOM     39  C   UNL     1      31.590   6.306  59.804  1.00  0.00     0.021 A 
ATOM     40  N   UNL     1      32.441   4.210  60.647  1.00  0.00    -0.264 NA
ATOM     41  C   UNL     1      31.968   5.452  60.840  1.00  0.00     0.111 A 
ENDBRANCH  34  36
ENDBRANCH  28  30
ENDBRANCH   6  28
TORSDOF 7
ENDMDL
MODEL 16
REMARK VINA RESULT:   -10.590      8.285     14.937
REMARK INTER + INTRA:         -14.031
REMARK INTER:                 -12.678
REMARK INTRA:                  -1.353
REMARK CONF_INDEPENDENT:        2.088
REMARK UNBOUND:                -1.353
REMARK SMILES Cc1cn(-c2cc(NC(=O)c3ccc(C)c(Nc4nccc(-c5cccnc5)n4)c3)cc(C(F)(F)F)c2)cn1
REMARK SMILES IDX 11 1 12 2 13 3 14 4 15 5 16 6 30 7 9 8 10 9 8 10 7 12 6 13
REMARK SMILES IDX 31 14 5 15 32 16 37 17 4 18 3 19 38 20 2 21 39 22 1 23 33 24
REMARK SMILES IDX 34 25 35 26 36 27 17 28 18 30 19 31 29 32 20 33 22 34 21 35
REMARK SMILES IDX 23 36 24 37 28 38 25 39 27 40 26 41
REMARK H PARENT 8 11 17 29
ROOT
ATOM      1  C   UNL     1      36.186  -1.594  49.563  1.00  0.00     0.042 A 
ATOM      2  C   UNL     1      35.476  -2.778  49.314  1.00  0.00     0.014 A 
ATOM      3  C   UNL     1      34.083  -2.819  49.386  1.00  0.00     0.006 A 
ATOM      4  C   UNL     1      33.351  -1.713  49.788  1.00  0.00    -0.027 A 
ATOM      5  C   UNL     1      31.833  -1.775  49.869  1.00  0.00     0.046 C 
ATOM      6  C   UNL     1      34.058  -0.563  50.137  1.00  0.00     0.045 A 
ATOM      7  C   UNL     1      35.454  -0.535  50.034  1.00  0.00     0.040 A 
ENDROOT
BRANCH   1   8
ATOM      8  C   UNL     1      37.657  -1.491  49.634  1.00  0.00     0.255 C 
ATOM      9  O   UNL     1      38.084  -0.732  50.469  1.00  0.00    -0.269 OA
ATOM     10  N   UNL     1      38.348  -2.419  48.955  1.00  0.00    -0.322 N 
ATOM     11  H   UNL     1      37.804  -3.084  48.388  1.00  0.00     0.170 HD
BRANCH  10  12
ATOM     12  C   UNL     1      39.730  -2.563  48.947  1.00  0.00     0.044 A 
ATOM     13  C   UNL     1      40.471  -2.538  50.154  1.00  0.00     0.052 A 
ATOM     14  C   UNL     1      40.439  -2.617  47.727  1.00  0.00     0.039 A 
ATOM     15  C   UNL     1      41.860  -2.693  50.157  1.00  0.00     0.049 A 
ATOM     16  C   UNL     1      41.851  -2.797  47.733  1.00  0.00     0.060 A 
ATOM     17  C   UNL     1      42.540  -2.797  48.948  1.00  0.00     0.039 A 
BRANCH  15  18
ATOM     18  N   UNL     1      42.598  -2.711  51.350  1.00  0.00    -0.306 N 
ATOM     19  C   UNL     1      42.627  -3.685  52.347  1.00  0.00     0.116 A 
ATOM     20  C   UNL     1      43.374  -1.731  51.827  1.00  0.00     0.204 A 
ATOM     21  C   UNL     1      43.413  -3.238  53.350  1.00  0.00     0.056 A 
ATOM     22  N   UNL     1      43.897  -2.028  52.992  1.00  0.00    -0.242 NA
ATOM     23  C   UNL     1      43.768  -3.944  54.637  1.00  0.00     0.068 C 
ENDBRANCH  15  18
BRANCH  16  24
ATOM     24  C   UNL     1      42.569  -2.912  46.427  1.00  0.00     0.416 C 
ATOM     25  F   UNL     1      42.133  -3.901  45.622  1.00  0.00    -0.166 F 
ATOM     26  F   UNL     1      42.367  -1.836  45.675  1.00  0.00    -0.166 F 
ATOM     27  F   UNL     1      43.880  -3.192  46.585  1.00  0.00    -0.166 F 
ENDBRANCH  16  24
ENDBRANCH  10  12
ENDBRANCH   1   8
BRANCH   6  28
ATOM     28  N   UNL     1      33.337   0.611  50.388  1.00  0.00    -0.324 N 
ATOM     29  H   UNL     1      32.965   1.169  49.606  1.00  0.00     0.170 HD
BRANCH  28  30
ATOM     30  C   UNL     1      33.127   1.020  51.706  1.00  0.00     0.227 A 
ATOM     31  N   UNL     1      33.793   1.925  52.413  1.00  0.00    -0.221 NA
ATOM     32  N   UNL     1      32.129   0.256  52.221  1.00  0.00    -0.213 NA
ATOM     33  C   UNL     1      33.408   2.097  53.692  1.00  0.00     0.117 A 
ATOM     34  C   UNL     1      31.803   0.441  53.505  1.00  0.00     0.077 A 
ATOM     35  C   UNL     1      32.439   1.362  54.261  1.00  0.00     0.049 A 
BRANCH  34  36
ATOM     36  C   UNL     1      30.682  -0.394  54.010  1.00  0.00     0.019 A 
ATOM     37  C   UNL     1      29.573   0.177  54.655  1.00  0.00     0.013 A 
ATOM     38  C   UNL     1      30.712  -1.795  53.866  1.00  0.00     0.121 A 
ATOM     39  C   UNL     1      28.567  -0.655  55.129  1.00  0.00     0.021 A 
ATOM     40  N   UNL     1      29.749  -2.602  54.327  1.00  0.00    -0.264 NA
ATOM     41  C   UNL     1      28.688  -2.028  54.918  1.00  0.00     0.111 A 
ENDBRANCH  34  36
ENDBRANCH  28  30
ENDBRANCH   6  28
TORSDOF 7
ENDMDL
MODEL 17
REMARK VINA RESULT:   -10.561      5.779     10.905
REMARK INTER + INTRA:         -13.786
REMARK INTER:                 -12.650
REMARK INTRA:                  -1.136
REMARK CONF_INDEPENDENT:        2.088
REMARK UNBOUND:                -1.136
REMARK SMILES Cc1cn(-c2cc(NC(=O)c3ccc(C)c(Nc4nccc(-c5cccnc5)n4)c3)cc(C(F)(F)F)c2)cn1
REMARK SMILES IDX 11 1 12 2 13 3 14 4 15 5 16 6 30 7 9 8 10 9 8 10 7 12 6 13
REMARK SMILES IDX 31 14 5 15 32 16 37 17 4 18 3 19 38 20 2 21 39 22 1 23 33 24
REMARK SMILES IDX 34 25 35 26 36 27 17 28 18 30 19 31 29 32 20 33 22 34 21 35
REMARK SMILES IDX 23 36 24 37 28 38 25 39 27 40 26 41
REMARK H PARENT 8 11 17 29
ROOT
ATOM      1  C   UNL     1      22.352   6.465  55.262  1.00  0.00     0.042 A 
ATOM      2  C   UNL     1      21.642   7.604  54.855  1.00  0.00     0.014 A 
ATOM      3  C   UNL     1      21.168   8.535  55.781  1.00  0.00     0.006 A 
ATOM      4  C   UNL     1      21.308   8.327  57.144  1.00  0.00    -0.027 A 
ATOM      5  C   UNL     1      20.779   9.347  58.142  1.00  0.00     0.046 C 
ATOM      6  C   UNL     1      21.921   7.146  57.558  1.00  0.00     0.045 A 
ATOM      7  C   UNL     1      22.412   6.236  56.612  1.00  0.00     0.040 A 
ENDROOT
BRANCH   1   8
ATOM      8  C   UNL     1      22.776   5.371  54.366  1.00  0.00     0.255 C 
ATOM      9  O   UNL     1      21.909   4.592  54.053  1.00  0.00    -0.269 OA
ATOM     10  N   UNL     1      23.988   5.501  53.806  1.00  0.00    -0.322 N 
ATOM     11  H   UNL     1      24.551   6.314  54.093  1.00  0.00     0.170 HD
BRANCH  10  12
ATOM     12  C   UNL     1      24.553   4.640  52.873  1.00  0.00     0.044 A 
ATOM     13  C   UNL     1      23.805   4.183  51.760  1.00  0.00     0.052 A 
ATOM     14  C   UNL     1      25.844   4.106  53.079  1.00  0.00     0.039 A 
ATOM     15  C   UNL     1      24.368   3.324  50.811  1.00  0.00     0.049 A 
ATOM     16  C   UNL     1      26.423   3.249  52.100  1.00  0.00     0.060 A 
ATOM     17  C   UNL     1      25.661   2.847  51.000  1.00  0.00     0.039 A 
BRANCH  15  18
ATOM     18  N   UNL     1      23.650   2.899  49.683  1.00  0.00    -0.306 N 
ATOM     19  C   UNL     1      22.848   1.770  49.529  1.00  0.00     0.116 A 
ATOM     20  C   UNL     1      23.665   3.458  48.467  1.00  0.00     0.204 A 
ATOM     21  C   UNL     1      22.429   1.721  48.246  1.00  0.00     0.056 A 
ATOM     22  N   UNL     1      22.924   2.804  47.606  1.00  0.00    -0.242 NA
ATOM     23  C   UNL     1      21.525   0.698  47.602  1.00  0.00     0.068 C 
ENDBRANCH  15  18
BRANCH  16  24
ATOM     24  C   UNL     1      27.814   2.746  52.313  1.00  0.00     0.416 C 
ATOM     25  F   UNL     1      28.425   3.214  53.420  1.00  0.00    -0.166 F 
ATOM     26  F   UNL     1      27.820   1.436  52.529  1.00  0.00    -0.166 F 
ATOM     27  F   UNL     1      28.649   3.109  51.317  1.00  0.00    -0.166 F 
ENDBRANCH  16  24
ENDBRANCH  10  12
ENDBRANCH   1   8
BRANCH   6  28
ATOM     28  N   UNL     1      22.218   6.990  58.918  1.00  0.00    -0.324 N 
ATOM     29  H   UNL     1      21.684   6.323  59.493  1.00  0.00     0.170 HD
BRANCH  28  30
ATOM     30  C   UNL     1      23.244   7.746  59.487  1.00  0.00     0.227 A 
ATOM     31  N   UNL     1      23.431   9.059  59.448  1.00  0.00    -0.221 NA
ATOM     32  N   UNL     1      24.122   6.883  60.061  1.00  0.00    -0.213 NA
ATOM     33  C   UNL     1      24.539   9.532  60.050  1.00  0.00     0.117 A 
ATOM     34  C   UNL     1      25.224   7.397  60.618  1.00  0.00     0.077 A 
ATOM     35  C   UNL     1      25.451   8.729  60.620  1.00  0.00     0.049 A 
BRANCH  34  36
ATOM     36  C   UNL     1      26.136   6.416  61.263  1.00  0.00     0.019 A 
ATOM     37  C   UNL     1      26.400   6.452  62.641  1.00  0.00     0.013 A 
ATOM     38  C   UNL     1      26.776   5.423  60.495  1.00  0.00     0.121 A 
ATOM     39  C   UNL     1      27.280   5.524  63.184  1.00  0.00     0.021 A 
ATOM     40  N   UNL     1      27.631   4.531  61.011  1.00  0.00    -0.264 NA
ATOM     41  C   UNL     1      27.846   4.573  62.336  1.00  0.00     0.111 A 
ENDBRANCH  34  36
ENDBRANCH  28  30
ENDBRANCH   6  28
TORSDOF 7
ENDMDL
MODEL 18
REMARK VINA RESULT:   -10.437      3.931     11.055
REMARK INTER + INTRA:         -13.962
REMARK INTER:                 -12.525
REMARK INTRA:                  -1.437
REMARK CONF_INDEPENDENT:        2.088
REMARK UNBOUND:                -1.437
REMARK SMILES Cc1cn(-c2cc(NC(=O)c3ccc(C)c(Nc4nccc(-c5cccnc5)n4)c3)cc(C(F)(F)F)c2)cn1
REMARK SMILES IDX 11 1 12 2 13 3 14 4 15 5 16 6 30 7 9 8 10 9 8 10 7 12 6 13
REMARK SMILES IDX 31 14 5 15 32 16 37 17 4 18 3 19 38 20 2 21 39 22 1 23 33 24
REMARK SMILES IDX 34 25 35 26 36 27 17 28 18 30 19 31 29 32 20 33 22 34 21 35
REMARK SMILES IDX 23 36 24 37 28 38 25 39 27 40 26 41
REMARK H PARENT 8 11 17 29
ROOT
ATOM      1  C   UNL     1      25.519   3.899  51.880  1.00  0.00     0.042 A 
ATOM      2  C   UNL     1      24.883   4.351  50.714  1.00  0.00     0.014 A 
ATOM      3  C   UNL     1      23.575   4.837  50.742  1.00  0.00     0.006 A 
ATOM      4  C   UNL     1      22.825   4.815  51.908  1.00  0.00    -0.027 A 
ATOM      5  C   UNL     1      21.397   5.342  51.922  1.00  0.00     0.046 C 
ATOM      6  C   UNL     1      23.417   4.271  53.046  1.00  0.00     0.045 A 
ATOM      7  C   UNL     1      24.739   3.812  53.003  1.00  0.00     0.040 A 
ENDROOT
BRANCH   1   8
ATOM      8  C   UNL     1      26.847   3.254  51.920  1.00  0.00     0.255 C 
ATOM      9  O   UNL     1      27.335   3.006  50.844  1.00  0.00    -0.269 OA
ATOM     10  N   UNL     1      27.465   3.246  53.110  1.00  0.00    -0.322 N 
ATOM     11  H   UNL     1      26.942   3.627  53.911  1.00  0.00     0.170 HD
BRANCH  10  12
ATOM     12  C   UNL     1      28.746   2.771  53.361  1.00  0.00     0.044 A 
ATOM     13  C   UNL     1      29.303   1.733  52.575  1.00  0.00     0.052 A 
ATOM     14  C   UNL     1      29.475   3.228  54.481  1.00  0.00     0.039 A 
ATOM     15  C   UNL     1      30.595   1.255  52.813  1.00  0.00     0.049 A 
ATOM     16  C   UNL     1      30.799   2.755  54.709  1.00  0.00     0.060 A 
ATOM     17  C   UNL     1      31.321   1.752  53.890  1.00  0.00     0.039 A 
BRANCH  15  18
ATOM     18  N   UNL     1      31.172   0.256  52.014  1.00  0.00    -0.306 N 
ATOM     19  C   UNL     1      32.512  -0.109  51.899  1.00  0.00     0.116 A 
ATOM     20  C   UNL     1      30.547  -0.506  51.108  1.00  0.00     0.204 A 
ATOM     21  C   UNL     1      32.610  -1.061  50.946  1.00  0.00     0.056 A 
ATOM     22  N   UNL     1      31.366  -1.319  50.487  1.00  0.00    -0.242 NA
ATOM     23  C   UNL     1      33.851  -1.782  50.478  1.00  0.00     0.068 C 
ENDBRANCH  15  18
BRANCH  16  24
ATOM     24  C   UNL     1      31.570   3.301  55.867  1.00  0.00     0.416 C 
ATOM     25  F   UNL     1      31.000   4.354  56.486  1.00  0.00    -0.166 F 
ATOM     26  F   UNL     1      31.646   2.412  56.851  1.00  0.00    -0.166 F 
ATOM     27  F   UNL     1      32.781   3.770  55.502  1.00  0.00    -0.166 F 
ENDBRANCH  16  24
ENDBRANCH  10  12
ENDBRANCH   1   8
BRANCH   6  28
ATOM     28  N   UNL     1      22.742   4.387  54.268  1.00  0.00    -0.324 N 
ATOM     29  H   UNL     1      22.291   3.563  54.692  1.00  0.00     0.170 HD
BRANCH  28  30
ATOM     30  C   UNL     1      22.685   5.627  54.907  1.00  0.00     0.227 A 
ATOM     31  N   UNL     1      21.730   6.547  54.855  1.00  0.00    -0.221 NA
ATOM     32  N   UNL     1      23.856   5.802  55.572  1.00  0.00    -0.213 NA
ATOM     33  C   UNL     1      21.948   7.686  55.539  1.00  0.00     0.117 A 
ATOM     34  C   UNL     1      24.040   6.963  56.211  1.00  0.00     0.077 A 
ATOM     35  C   UNL     1      23.091   7.923  56.202  1.00  0.00     0.049 A 
BRANCH  34  36
ATOM     36  C   UNL     1      25.322   7.092  56.952  1.00  0.00     0.019 A 
ATOM     37  C   UNL     1      25.406   7.808  58.157  1.00  0.00     0.013 A 
ATOM     38  C   UNL     1      26.500   6.505  56.451  1.00  0.00     0.121 A 
ATOM     39  C   UNL     1      26.637   7.916  58.793  1.00  0.00     0.021 A 
ATOM     40  N   UNL     1      27.690   6.612  57.055  1.00  0.00    -0.264 NA
ATOM     41  C   UNL     1      27.737   7.281  58.219  1.00  0.00     0.111 A 
ENDBRANCH  34  36
ENDBRANCH  28  30
ENDBRANCH   6  28
TORSDOF 7
ENDMDL
MODEL 19
REMARK VINA RESULT:   -10.430      3.368     12.051
REMARK INTER + INTRA:         -13.661
REMARK INTER:                 -12.518
REMARK INTRA:                  -1.143
REMARK CONF_INDEPENDENT:        2.088
REMARK UNBOUND:                -1.143
REMARK SMILES Cc1cn(-c2cc(NC(=O)c3ccc(C)c(Nc4nccc(-c5cccnc5)n4)c3)cc(C(F)(F)F)c2)cn1
REMARK SMILES IDX 11 1 12 2 13 3 14 4 15 5 16 6 30 7 9 8 10 9 8 10 7 12 6 13
REMARK SMILES IDX 31 14 5 15 32 16 37 17 4 18 3 19 38 20 2 21 39 22 1 23 33 24
REMARK SMILES IDX 34 25 35 26 36 27 17 28 18 30 19 31 29 32 20 33 22 34 21 35
REMARK SMILES IDX 23 36 24 37 28 38 25 39 27 40 26 41
REMARK H PARENT 8 11 17 29
ROOT
ATOM      1  C   UNL     1      25.872   3.279  51.764  1.00  0.00     0.042 A 
ATOM      2  C   UNL     1      25.942   3.596  50.399  1.00  0.00     0.014 A 
ATOM      3  C   UNL     1      24.922   4.306  49.764  1.00  0.00     0.006 A 
ATOM      4  C   UNL     1      23.762   4.653  50.437  1.00  0.00    -0.027 A 
ATOM      5  C   UNL     1      22.654   5.421  49.730  1.00  0.00     0.046 C 
ATOM      6  C   UNL     1      23.641   4.250  51.766  1.00  0.00     0.045 A 
ATOM      7  C   UNL     1      24.687   3.560  52.392  1.00  0.00     0.040 A 
ENDROOT
BRANCH   1   8
ATOM      8  C   UNL     1      26.839   2.427  52.482  1.00  0.00     0.255 C 
ATOM      9  O   UNL     1      26.515   2.102  53.598  1.00  0.00    -0.269 OA
ATOM     10  N   UNL     1      27.832   1.907  51.745  1.00  0.00    -0.322 N 
ATOM     11  H   UNL     1      27.881   2.194  50.757  1.00  0.00     0.170 HD
BRANCH  10  12
ATOM     12  C   UNL     1      28.801   1.017  52.192  1.00  0.00     0.044 A 
ATOM     13  C   UNL     1      30.011   0.839  51.476  1.00  0.00     0.052 A 
ATOM     14  C   UNL     1      28.550   0.182  53.302  1.00  0.00     0.039 A 
ATOM     15  C   UNL     1      30.995  -0.046  51.923  1.00  0.00     0.049 A 
ATOM     16  C   UNL     1      29.564  -0.704  53.769  1.00  0.00     0.060 A 
ATOM     17  C   UNL     1      30.755  -0.826  53.050  1.00  0.00     0.039 A 
BRANCH  15  18
ATOM     18  N   UNL     1      32.214  -0.198  51.245  1.00  0.00    -0.306 N 
ATOM     19  C   UNL     1      32.573  -1.149  50.292  1.00  0.00     0.116 A 
ATOM     20  C   UNL     1      33.337   0.501  51.448  1.00  0.00     0.204 A 
ATOM     21  C   UNL     1      33.874  -0.964  49.979  1.00  0.00     0.056 A 
ATOM     22  N   UNL     1      34.325   0.094  50.689  1.00  0.00    -0.242 NA
ATOM     23  C   UNL     1      34.709  -1.732  48.983  1.00  0.00     0.068 C 
ENDBRANCH  15  18
BRANCH  16  24
ATOM     24  C   UNL     1      29.294  -1.533  54.983  1.00  0.00     0.416 C 
ATOM     25  F   UNL     1      28.901  -2.797  54.733  1.00  0.00    -0.166 F 
ATOM     26  F   UNL     1      30.404  -1.723  55.686  1.00  0.00    -0.166 F 
ATOM     27  F   UNL     1      28.288  -1.034  55.731  1.00  0.00    -0.166 F 
ENDBRANCH  16  24
ENDBRANCH  10  12
ENDBRANCH   1   8
BRANCH   6  28
ATOM     28  N   UNL     1      22.555   4.727  52.511  1.00  0.00    -0.324 N 
ATOM     29  H   UNL     1      21.770   4.102  52.743  1.00  0.00     0.170 HD
BRANCH  28  30
ATOM     30  C   UNL     1      22.545   6.057  52.936  1.00  0.00     0.227 A 
ATOM     31  N   UNL     1      22.616   7.164  52.209  1.00  0.00    -0.221 NA
ATOM     32  N   UNL     1      22.527   6.055  54.294  1.00  0.00    -0.213 NA
ATOM     33  C   UNL     1      22.631   8.331  52.882  1.00  0.00     0.117 A 
ATOM     34  C   UNL     1      22.575   7.237  54.919  1.00  0.00     0.077 A 
ATOM     35  C   UNL     1      22.631   8.393  54.222  1.00  0.00     0.049 A 
BRANCH  34  36
ATOM     36  C   UNL     1      22.518   7.182  56.403  1.00  0.00     0.019 A 
ATOM     37  C   UNL     1      23.680   7.053  57.180  1.00  0.00     0.013 A 
ATOM     38  C   UNL     1      21.281   7.244  57.073  1.00  0.00     0.121 A 
ATOM     39  C   UNL     1      23.563   6.982  58.562  1.00  0.00     0.021 A 
ATOM     40  N   UNL     1      21.161   7.168  58.405  1.00  0.00    -0.264 NA
ATOM     41  C   UNL     1      22.291   7.070  59.125  1.00  0.00     0.111 A 
ENDBRANCH  34  36
ENDBRANCH  28  30
ENDBRANCH   6  28
TORSDOF 7
ENDMDL
MODEL 20
REMARK VINA RESULT:   -10.309      8.389     14.825
REMARK INTER + INTRA:         -13.677
REMARK INTER:                 -12.397
REMARK INTRA:                  -1.280
REMARK CONF_INDEPENDENT:        2.088
REMARK UNBOUND:                -1.280
REMARK SMILES Cc1cn(-c2cc(NC(=O)c3ccc(C)c(Nc4nccc(-c5cccnc5)n4)c3)cc(C(F)(F)F)c2)cn1
REMARK SMILES IDX 11 1 12 2 13 3 14 4 15 5 16 6 30 7 9 8 10 9 8 10 7 12 6 13
REMARK SMILES IDX 31 14 5 15 32 16 37 17 4 18 3 19 38 20 2 21 39 22 1 23 33 24
REMARK SMILES IDX 34 25 35 26 36 27 17 28 18 30 19 31 29 32 20 33 22 34 21 35
REMARK SMILES IDX 23 36 24 37 28 38 25 39 27 40 26 41
REMARK H PARENT 8 11 17 29
ROOT
ATOM      1  C   UNL     1      35.996  -1.722  49.266  1.00  0.00     0.042 A 
ATOM      2  C   UNL     1      35.206  -2.879  49.191  1.00  0.00     0.014 A 
ATOM      3  C   UNL     1      33.838  -2.843  49.465  1.00  0.00     0.006 A 
ATOM      4  C   UNL     1      33.223  -1.681  49.902  1.00  0.00    -0.027 A 
ATOM      5  C   UNL     1      31.731  -1.658  50.205  1.00  0.00     0.046 C 
ATOM      6  C   UNL     1      34.023  -0.553  50.078  1.00  0.00     0.045 A 
ATOM      7  C   UNL     1      35.389  -0.603  49.773  1.00  0.00     0.040 A 
ENDROOT
BRANCH   1   8
ATOM      8  C   UNL     1      37.465  -1.694  49.117  1.00  0.00     0.255 C 
ATOM      9  O   UNL     1      38.089  -1.630  50.149  1.00  0.00    -0.269 OA
ATOM     10  N   UNL     1      37.943  -1.992  47.900  1.00  0.00    -0.322 N 
ATOM     11  H   UNL     1      37.252  -2.150  47.153  1.00  0.00     0.170 HD
BRANCH  10  12
ATOM     12  C   UNL     1      39.283  -2.105  47.555  1.00  0.00     0.044 A 
ATOM     13  C   UNL     1      40.119  -0.963  47.498  1.00  0.00     0.052 A 
ATOM     14  C   UNL     1      39.814  -3.345  47.136  1.00  0.00     0.039 A 
ATOM     15  C   UNL     1      41.472  -1.068  47.162  1.00  0.00     0.049 A 
ATOM     16  C   UNL     1      41.197  -3.454  46.815  1.00  0.00     0.060 A 
ATOM     17  C   UNL     1      41.993  -2.307  46.801  1.00  0.00     0.039 A 
BRANCH  15  18
ATOM     18  N   UNL     1      42.317   0.051  47.144  1.00  0.00    -0.306 N 
ATOM     19  C   UNL     1      42.043   1.362  47.527  1.00  0.00     0.116 A 
ATOM     20  C   UNL     1      43.563   0.107  46.657  1.00  0.00     0.204 A 
ATOM     21  C   UNL     1      43.129   2.118  47.256  1.00  0.00     0.056 A 
ATOM     22  N   UNL     1      44.080   1.308  46.742  1.00  0.00    -0.242 NA
ATOM     23  C   UNL     1      43.321   3.594  47.510  1.00  0.00     0.068 C 
ENDBRANCH  15  18
BRANCH  16  24
ATOM     24  C   UNL     1      41.746  -4.791  46.433  1.00  0.00     0.416 C 
ATOM     25  F   UNL     1      40.832  -5.778  46.345  1.00  0.00    -0.166 F 
ATOM     26  F   UNL     1      42.245  -4.768  45.203  1.00  0.00    -0.166 F 
ATOM     27  F   UNL     1      42.628  -5.261  47.338  1.00  0.00    -0.166 F 
ENDBRANCH  16  24
ENDBRANCH  10  12
ENDBRANCH   1   8
BRANCH   6  28
ATOM     28  N   UNL     1      33.400   0.669  50.360  1.00  0.00    -0.324 N 
ATOM     29  H   UNL     1      33.085   1.281  49.594  1.00  0.00     0.170 HD
BRANCH  28  30
ATOM     30  C   UNL     1      33.210   1.052  51.690  1.00  0.00     0.227 A 
ATOM     31  N   UNL     1      33.897   1.929  52.410  1.00  0.00    -0.221 NA
ATOM     32  N   UNL     1      32.202   0.295  52.196  1.00  0.00    -0.213 NA
ATOM     33  C   UNL     1      33.527   2.079  53.696  1.00  0.00     0.117 A 
ATOM     34  C   UNL     1      31.891   0.457  53.487  1.00  0.00     0.077 A 
ATOM     35  C   UNL     1      32.550   1.349  54.257  1.00  0.00     0.049 A 
BRANCH  34  36
ATOM     36  C   UNL     1      30.760  -0.369  53.983  1.00  0.00     0.019 A 
ATOM     37  C   UNL     1      29.666   0.206  54.650  1.00  0.00     0.013 A 
ATOM     38  C   UNL     1      30.764  -1.767  53.809  1.00  0.00     0.121 A 
ATOM     39  C   UNL     1      28.649  -0.618  55.114  1.00  0.00     0.021 A 
ATOM     40  N   UNL     1      29.790  -2.568  54.261  1.00  0.00    -0.264 NA
ATOM     41  C   UNL     1      28.744  -1.988  54.873  1.00  0.00     0.111 A 
ENDBRANCH  34  36
ENDBRANCH  28  30
ENDBRANCH   6  28
TORSDOF 7
ENDMDL
