MODEL 1
REMARK VINA RESULT:   -14.415      0.000      0.000
REMARK INTER + INTRA:         -17.671
REMARK INTER:                 -16.503
REMARK INTRA:                  -1.169
REMARK CONF_INDEPENDENT:        2.088
REMARK UNBOUND:                -1.169
REMARK SMILES Cc1cn(-c2cc(NC(=O)c3ccc(C)c(Nc4nccc(-c5cccnc5)n4)c3)cc(C(F)(F)F)c2)cn1
REMARK SMILES IDX 11 1 12 2 13 3 14 4 15 5 16 6 30 7 9 8 10 9 8 10 7 12 6 13
REMARK SMILES IDX 31 14 5 15 32 16 37 17 4 18 3 19 38 20 2 21 39 22 1 23 33 24
REMARK SMILES IDX 34 25 35 26 36 27 17 28 18 30 19 31 29 32 20 33 22 34 21 35
REMARK SMILES IDX 23 36 24 37 28 38 25 39 27 40 26 41
REMARK H PARENT 8 11 17 29
ROOT
ATOM      1  C   UNL     1      27.967   1.743  53.072  1.00  0.00     0.042 A 
ATOM      2  C   UNL     1      27.678   1.207  54.336  1.00  0.00     0.014 A 
ATOM      3  C   UNL     1      28.395   0.124  54.848  1.00  0.00     0.006 A 
ATOM      4  C   UNL     1      29.363  -0.518  54.093  1.00  0.00    -0.027 A 
ATOM      5  C   UNL     1      30.132  -1.703  54.661  1.00  0.00     0.046 C 
ATOM      6  C   UNL     1      29.583  -0.055  52.796  1.00  0.00     0.045 A 
ATOM      7  C   UNL     1      28.871   1.049  52.311  1.00  0.00     0.040 A 
ENDROOT
BRANCH   1   8
ATOM      8  C   UNL     1      27.181   2.799  52.404  1.00  0.00     0.255 C 
ATOM      9  O   UNL     1      27.483   3.022  51.257  1.00  0.00    -0.269 OA
ATOM     10  N   UNL     1      26.075   3.208  53.044  1.00  0.00    -0.322 N 
ATOM     11  H   UNL     1      25.898   2.805  53.975  1.00  0.00     0.170 HD
BRANCH  10  12
ATOM     12  C   UNL     1      25.148   4.125  52.566  1.00  0.00     0.044 A 
ATOM     13  C   UNL     1      24.224   4.748  53.441  1.00  0.00     0.052 A 
ATOM     14  C   UNL     1      25.026   4.366  51.180  1.00  0.00     0.039 A 
ATOM     15  C   UNL     1      23.294   5.679  52.971  1.00  0.00     0.049 A 
ATOM     16  C   UNL     1      24.092   5.332  50.706  1.00  0.00     0.060 A 
ATOM     17  C   UNL     1      23.220   5.945  51.607  1.00  0.00     0.039 A 
BRANCH  15  18
ATOM     18  N   UNL     1      22.403   6.333  53.835  1.00  0.00    -0.306 N 
ATOM     19  C   UNL     1      22.138   6.075  55.179  1.00  0.00     0.116 A 
ATOM     20  C   UNL     1      21.539   7.303  53.512  1.00  0.00     0.204 A 
ATOM     21  C   UNL     1      21.145   6.899  55.579  1.00  0.00     0.056 A 
ATOM     22  N   UNL     1      20.807   7.682  54.530  1.00  0.00    -0.242 NA
ATOM     23  C   UNL     1      20.525   7.008  56.951  1.00  0.00     0.068 C 
ENDBRANCH  15  18
BRANCH  16  24
ATOM     24  C   UNL     1      24.026   5.611  49.239  1.00  0.00     0.416 C 
ATOM     25  F   UNL     1      24.849   6.587  48.807  1.00  0.00    -0.166 F 
ATOM     26  F   UNL     1      24.446   4.566  48.535  1.00  0.00    -0.166 F 
ATOM     27  F   UNL     1      22.805   6.036  48.853  1.00  0.00    -0.166 F 
ENDBRANCH  16  24
ENDBRANCH  10  12
ENDBRANCH   1   8
BRANCH   6  28
ATOM     28  N   UNL     1      30.664  -0.580  52.076  1.00  0.00    -0.324 N 
ATOM     29  H   UNL     1      30.525  -1.376  51.437  1.00  0.00     0.170 HD
BRANCH  28  30
ATOM     30  C   UNL     1      31.931  -0.014  52.230  1.00  0.00     0.227 A 
ATOM     31  N   UNL     1      32.322   0.938  53.068  1.00  0.00    -0.221 NA
ATOM     32  N   UNL     1      32.743  -0.558  51.287  1.00  0.00    -0.213 NA
ATOM     33  C   UNL     1      33.605   1.334  52.978  1.00  0.00     0.117 A 
ATOM     34  C   UNL     1      34.001  -0.109  51.215  1.00  0.00     0.077 A 
ATOM     35  C   UNL     1      34.451   0.845  52.058  1.00  0.00     0.049 A 
BRANCH  34  36
ATOM     36  C   UNL     1      34.858  -0.761  50.190  1.00  0.00     0.019 A 
ATOM     37  C   UNL     1      36.187  -0.359  49.979  1.00  0.00     0.013 A 
ATOM     38  C   UNL     1      34.348  -1.799  49.386  1.00  0.00     0.121 A 
ATOM     39  C   UNL     1      36.933  -0.987  48.990  1.00  0.00     0.021 A 
ATOM     40  N   UNL     1      35.060  -2.403  48.426  1.00  0.00    -0.264 NA
ATOM     41  C   UNL     1      36.336  -2.016  48.263  1.00  0.00     0.111 A 
ENDBRANCH  34  36
ENDBRANCH  28  30
ENDBRANCH   6  28
TORSDOF 7
ENDMDL
MODEL 2
REMARK VINA RESULT:   -13.374      2.243      3.668
REMARK INTER + INTRA:         -16.694
REMARK INTER:                 -15.463
REMARK INTRA:                  -1.231
REMARK CONF_INDEPENDENT:        2.088
REMARK UNBOUND:                -1.231
REMARK SMILES Cc1cn(-c2cc(NC(=O)c3ccc(C)c(Nc4nccc(-c5cccnc5)n4)c3)cc(C(F)(F)F)c2)cn1
REMARK SMILES IDX 11 1 12 2 13 3 14 4 15 5 16 6 30 7 9 8 10 9 8 10 7 12 6 13
REMARK SMILES IDX 31 14 5 15 32 16 37 17 4 18 3 19 38 20 2 21 39 22 1 23 33 24
REMARK SMILES IDX 34 25 35 26 36 27 17 28 18 30 19 31 29 32 20 33 22 34 21 35
REMARK SMILES IDX 23 36 24 37 28 38 25 39 27 40 26 41
REMARK H PARENT 8 11 17 29
ROOT
ATOM      1  C   UNL     1      28.326   1.472  53.522  1.00  0.00     0.042 A 
ATOM      2  C   UNL     1      28.065   0.828  54.740  1.00  0.00     0.014 A 
ATOM      3  C   UNL     1      28.777  -0.307  55.130  1.00  0.00     0.006 A 
ATOM      4  C   UNL     1      29.712  -0.892  54.290  1.00  0.00    -0.027 A 
ATOM      5  C   UNL     1      30.475  -2.135  54.725  1.00  0.00     0.046 C 
ATOM      6  C   UNL     1      29.901  -0.317  53.035  1.00  0.00     0.045 A 
ATOM      7  C   UNL     1      29.195   0.837  52.673  1.00  0.00     0.040 A 
ENDROOT
BRANCH   1   8
ATOM      8  C   UNL     1      27.540   2.596  52.976  1.00  0.00     0.255 C 
ATOM      9  O   UNL     1      28.006   3.128  51.998  1.00  0.00    -0.269 OA
ATOM     10  N   UNL     1      26.296   2.737  53.459  1.00  0.00    -0.322 N 
ATOM     11  H   UNL     1      26.013   2.098  54.214  1.00  0.00     0.170 HD
BRANCH  10  12
ATOM     12  C   UNL     1      25.356   3.668  53.033  1.00  0.00     0.044 A 
ATOM     13  C   UNL     1      25.151   3.914  51.653  1.00  0.00     0.052 A 
ATOM     14  C   UNL     1      24.671   4.475  53.967  1.00  0.00     0.039 A 
ATOM     15  C   UNL     1      24.201   4.841  51.215  1.00  0.00     0.049 A 
ATOM     16  C   UNL     1      23.688   5.403  53.520  1.00  0.00     0.060 A 
ATOM     17  C   UNL     1      23.495   5.593  52.149  1.00  0.00     0.039 A 
BRANCH  15  18
ATOM     18  N   UNL     1      23.960   5.062  49.851  1.00  0.00    -0.306 N 
ATOM     19  C   UNL     1      23.799   6.270  49.174  1.00  0.00     0.116 A 
ATOM     20  C   UNL     1      23.740   4.131  48.915  1.00  0.00     0.204 A 
ATOM     21  C   UNL     1      23.500   5.995  47.886  1.00  0.00     0.056 A 
ATOM     22  N   UNL     1      23.500   4.652  47.736  1.00  0.00    -0.242 NA
ATOM     23  C   UNL     1      23.256   6.972  46.761  1.00  0.00     0.068 C 
ENDBRANCH  15  18
BRANCH  16  24
ATOM     24  C   UNL     1      22.935   6.201  54.533  1.00  0.00     0.416 C 
ATOM     25  F   UNL     1      22.439   7.371  54.084  1.00  0.00    -0.166 F 
ATOM     26  F   UNL     1      21.834   5.567  54.918  1.00  0.00    -0.166 F 
ATOM     27  F   UNL     1      23.709   6.569  55.575  1.00  0.00    -0.166 F 
ENDBRANCH  16  24
ENDBRANCH  10  12
ENDBRANCH   1   8
BRANCH   6  28
ATOM     28  N   UNL     1      30.951  -0.790  52.237  1.00  0.00    -0.324 N 
ATOM     29  H   UNL     1      30.817  -1.618  51.639  1.00  0.00     0.170 HD
BRANCH  28  30
ATOM     30  C   UNL     1      32.181  -0.129  52.258  1.00  0.00     0.227 A 
ATOM     31  N   UNL     1      32.539   0.941  52.956  1.00  0.00    -0.221 NA
ATOM     32  N   UNL     1      32.988  -0.732  51.347  1.00  0.00    -0.213 NA
ATOM     33  C   UNL     1      33.787   1.406  52.755  1.00  0.00     0.117 A 
ATOM     34  C   UNL     1      34.208  -0.214  51.159  1.00  0.00     0.077 A 
ATOM     35  C   UNL     1      34.625   0.863  51.857  1.00  0.00     0.049 A 
BRANCH  34  36
ATOM     36  C   UNL     1      35.064  -0.930  50.177  1.00  0.00     0.019 A 
ATOM     37  C   UNL     1      36.341  -0.458  49.833  1.00  0.00     0.013 A 
ATOM     38  C   UNL     1      34.605  -2.105  49.550  1.00  0.00     0.121 A 
ATOM     39  C   UNL     1      37.087  -1.155  48.891  1.00  0.00     0.021 A 
ATOM     40  N   UNL     1      35.316  -2.776  48.635  1.00  0.00    -0.264 NA
ATOM     41  C   UNL     1      36.544  -2.317  48.344  1.00  0.00     0.111 A 
ENDBRANCH  34  36
ENDBRANCH  28  30
ENDBRANCH   6  28
TORSDOF 7
ENDMDL
MODEL 3
REMARK VINA RESULT:   -12.969      1.174      1.743
REMARK INTER + INTRA:         -16.177
REMARK INTER:                 -15.057
REMARK INTRA:                  -1.120
REMARK CONF_INDEPENDENT:        2.088
REMARK UNBOUND:                -1.120
REMARK SMILES Cc1cn(-c2cc(NC(=O)c3ccc(C)c(Nc4nccc(-c5cccnc5)n4)c3)cc(C(F)(F)F)c2)cn1
REMARK SMILES IDX 11 1 12 2 13 3 14 4 15 5 16 6 30 7 9 8 10 9 8 10 7 12 6 13
REMARK SMILES IDX 31 14 5 15 32 16 37 17 4 18 3 19 38 20 2 21 39 22 1 23 33 24
REMARK SMILES IDX 34 25 35 26 36 27 17 28 18 30 19 31 29 32 20 33 22 34 21 35
REMARK SMILES IDX 23 36 24 37 28 38 25 39 27 40 26 41
REMARK H PARENT 8 11 17 29
ROOT
ATOM      1  C   UNL     1      28.243   1.813  52.877  1.00  0.00     0.042 A 
ATOM      2  C   UNL     1      27.864   0.947  53.913  1.00  0.00     0.014 A 
ATOM      3  C   UNL     1      28.733  -0.033  54.396  1.00  0.00     0.006 A 
ATOM      4  C   UNL     1      29.972  -0.244  53.814  1.00  0.00    -0.027 A 
ATOM      5  C   UNL     1      30.906  -1.322  54.346  1.00  0.00     0.046 C 
ATOM      6  C   UNL     1      30.313   0.544  52.716  1.00  0.00     0.045 A 
ATOM      7  C   UNL     1      29.438   1.539  52.263  1.00  0.00     0.040 A 
ENDROOT
BRANCH   1   8
ATOM      8  C   UNL     1      27.349   2.788  52.223  1.00  0.00     0.255 C 
ATOM      9  O   UNL     1      27.547   2.965  51.045  1.00  0.00    -0.269 OA
ATOM     10  N   UNL     1      26.275   3.172  52.929  1.00  0.00    -0.322 N 
ATOM     11  H   UNL     1      26.194   2.812  53.890  1.00  0.00     0.170 HD
BRANCH  10  12
ATOM     12  C   UNL     1      25.262   4.012  52.482  1.00  0.00     0.044 A 
ATOM     13  C   UNL     1      24.311   4.548  53.386  1.00  0.00     0.052 A 
ATOM     14  C   UNL     1      25.085   4.252  51.102  1.00  0.00     0.039 A 
ATOM     15  C   UNL     1      23.295   5.402  52.947  1.00  0.00     0.049 A 
ATOM     16  C   UNL     1      24.063   5.140  50.660  1.00  0.00     0.060 A 
ATOM     17  C   UNL     1      23.165   5.671  51.589  1.00  0.00     0.039 A 
BRANCH  15  18
ATOM     18  N   UNL     1      22.374   5.972  53.840  1.00  0.00    -0.306 N 
ATOM     19  C   UNL     1      21.746   7.214  53.774  1.00  0.00     0.116 A 
ATOM     20  C   UNL     1      21.973   5.463  55.010  1.00  0.00     0.204 A 
ATOM     21  C   UNL     1      21.008   7.374  54.895  1.00  0.00     0.056 A 
ATOM     22  N   UNL     1      21.138   6.253  55.640  1.00  0.00    -0.242 NA
ATOM     23  C   UNL     1      20.135   8.545  55.273  1.00  0.00     0.068 C 
ENDBRANCH  15  18
BRANCH  16  24
ATOM     24  C   UNL     1      23.936   5.424  49.199  1.00  0.00     0.416 C 
ATOM     25  F   UNL     1      24.900   6.215  48.687  1.00  0.00    -0.166 F 
ATOM     26  F   UNL     1      24.082   4.315  48.483  1.00  0.00    -0.166 F 
ATOM     27  F   UNL     1      22.798   6.084  48.901  1.00  0.00    -0.166 F 
ENDBRANCH  16  24
ENDBRANCH  10  12
ENDBRANCH   1   8
BRANCH   6  28
ATOM     28  N   UNL     1      31.619   0.462  52.216  1.00  0.00    -0.324 N 
ATOM     29  H   UNL     1      32.367   1.044  52.619  1.00  0.00     0.170 HD
BRANCH  28  30
ATOM     30  C   UNL     1      31.899  -0.417  51.167  1.00  0.00     0.227 A 
ATOM     31  N   UNL     1      31.071  -1.219  50.510  1.00  0.00    -0.221 NA
ATOM     32  N   UNL     1      33.239  -0.387  50.951  1.00  0.00    -0.213 NA
ATOM     33  C   UNL     1      31.615  -2.004  49.561  1.00  0.00     0.117 A 
ATOM     34  C   UNL     1      33.737  -1.208  50.020  1.00  0.00     0.077 A 
ATOM     35  C   UNL     1      32.933  -2.030  49.312  1.00  0.00     0.049 A 
BRANCH  34  36
ATOM     36  C   UNL     1      35.204  -1.112  49.797  1.00  0.00     0.019 A 
ATOM     37  C   UNL     1      35.849  -1.876  48.811  1.00  0.00     0.013 A 
ATOM     38  C   UNL     1      35.993  -0.255  50.588  1.00  0.00     0.121 A 
ATOM     39  C   UNL     1      37.226  -1.764  48.665  1.00  0.00     0.021 A 
ATOM     40  N   UNL     1      37.321  -0.149  50.457  1.00  0.00    -0.264 NA
ATOM     41  C   UNL     1      37.909  -0.871  49.490  1.00  0.00     0.111 A 
ENDBRANCH  34  36
ENDBRANCH  28  30
ENDBRANCH   6  28
TORSDOF 7
ENDMDL
MODEL 4
REMARK VINA RESULT:   -12.302      1.352      2.077
REMARK INTER + INTRA:         -15.735
REMARK INTER:                 -14.390
REMARK INTRA:                  -1.345
REMARK CONF_INDEPENDENT:        2.088
REMARK UNBOUND:                -1.345
REMARK SMILES Cc1cn(-c2cc(NC(=O)c3ccc(C)c(Nc4nccc(-c5cccnc5)n4)c3)cc(C(F)(F)F)c2)cn1
REMARK SMILES IDX 11 1 12 2 13 3 14 4 15 5 16 6 30 7 9 8 10 9 8 10 7 12 6 13
REMARK SMILES IDX 31 14 5 15 32 16 37 17 4 18 3 19 38 20 2 21 39 22 1 23 33 24
REMARK SMILES IDX 34 25 35 26 36 27 17 28 18 30 19 31 29 32 20 33 22 34 21 35
REMARK SMILES IDX 23 36 24 37 28 38 25 39 27 40 26 41
REMARK H PARENT 8 11 17 29
ROOT
ATOM      1  C   UNL     1      28.058   1.978  53.082  1.00  0.00     0.042 A 
ATOM      2  C   UNL     1      27.696   0.680  53.475  1.00  0.00     0.014 A 
ATOM      3  C   UNL     1      28.603  -0.164  54.117  1.00  0.00     0.006 A 
ATOM      4  C   UNL     1      29.921   0.215  54.316  1.00  0.00    -0.027 A 
ATOM      5  C   UNL     1      30.901  -0.720  55.010  1.00  0.00     0.046 C 
ATOM      6  C   UNL     1      30.314   1.462  53.835  1.00  0.00     0.045 A 
ATOM      7  C   UNL     1      29.382   2.305  53.216  1.00  0.00     0.040 A 
ENDROOT
BRANCH   1   8
ATOM      8  C   UNL     1      27.207   2.887  52.290  1.00  0.00     0.255 C 
ATOM      9  O   UNL     1      27.435   2.909  51.105  1.00  0.00    -0.269 OA
ATOM     10  N   UNL     1      26.131   3.386  52.916  1.00  0.00    -0.322 N 
ATOM     11  H   UNL     1      26.019   3.152  53.912  1.00  0.00     0.170 HD
BRANCH  10  12
ATOM     12  C   UNL     1      25.154   4.191  52.343  1.00  0.00     0.044 A 
ATOM     13  C   UNL     1      24.190   4.849  53.147  1.00  0.00     0.052 A 
ATOM     14  C   UNL     1      25.024   4.274  50.940  1.00  0.00     0.039 A 
ATOM     15  C   UNL     1      23.210   5.668  52.581  1.00  0.00     0.049 A 
ATOM     16  C   UNL     1      24.039   5.127  50.366  1.00  0.00     0.060 A 
ATOM     17  C   UNL     1      23.127   5.781  51.197  1.00  0.00     0.039 A 
BRANCH  15  18
ATOM     18  N   UNL     1      22.277   6.357  53.372  1.00  0.00    -0.306 N 
ATOM     19  C   UNL     1      21.593   7.538  53.089  1.00  0.00     0.116 A 
ATOM     20  C   UNL     1      21.916   6.061  54.626  1.00  0.00     0.204 A 
ATOM     21  C   UNL     1      20.866   7.874  54.177  1.00  0.00     0.056 A 
ATOM     22  N   UNL     1      21.056   6.920  55.115  1.00  0.00    -0.242 NA
ATOM     23  C   UNL     1      19.946   9.059  54.349  1.00  0.00     0.068 C 
ENDBRANCH  15  18
BRANCH  16  24
ATOM     24  C   UNL     1      23.963   5.243  48.878  1.00  0.00     0.416 C 
ATOM     25  F   UNL     1      22.822   4.784  48.328  1.00  0.00    -0.166 F 
ATOM     26  F   UNL     1      23.959   6.515  48.498  1.00  0.00    -0.166 F 
ATOM     27  F   UNL     1      24.921   4.523  48.258  1.00  0.00    -0.166 F 
ENDBRANCH  16  24
ENDBRANCH  10  12
ENDBRANCH   1   8
BRANCH   6  28
ATOM     28  N   UNL     1      31.591   1.933  54.166  1.00  0.00    -0.324 N 
ATOM     29  H   UNL     1      31.699   2.745  54.790  1.00  0.00     0.170 HD
BRANCH  28  30
ATOM     30  C   UNL     1      32.716   1.291  53.645  1.00  0.00     0.227 A 
ATOM     31  N   UNL     1      33.973   1.341  54.067  1.00  0.00    -0.221 NA
ATOM     32  N   UNL     1      32.329   0.625  52.527  1.00  0.00    -0.213 NA
ATOM     33  C   UNL     1      34.881   0.654  53.348  1.00  0.00     0.117 A 
ATOM     34  C   UNL     1      33.272  -0.016  51.827  1.00  0.00     0.077 A 
ATOM     35  C   UNL     1      34.562  -0.010  52.225  1.00  0.00     0.049 A 
BRANCH  34  36
ATOM     36  C   UNL     1      32.792  -0.758  50.632  1.00  0.00     0.019 A 
ATOM     37  C   UNL     1      31.423  -0.930  50.374  1.00  0.00     0.013 A 
ATOM     38  C   UNL     1      33.710  -1.327  49.727  1.00  0.00     0.121 A 
ATOM     39  C   UNL     1      31.033  -1.654  49.255  1.00  0.00     0.021 A 
ATOM     40  N   UNL     1      33.340  -2.033  48.651  1.00  0.00    -0.264 NA
ATOM     41  C   UNL     1      32.024  -2.160  48.414  1.00  0.00     0.111 A 
ENDBRANCH  34  36
ENDBRANCH  28  30
ENDBRANCH   6  28
TORSDOF 7
ENDMDL
MODEL 5
REMARK VINA RESULT:   -12.247      1.543      3.567
REMARK INTER + INTRA:         -15.893
REMARK INTER:                 -14.335
REMARK INTRA:                  -1.558
REMARK CONF_INDEPENDENT:        2.088
REMARK UNBOUND:                -1.558
REMARK SMILES Cc1cn(-c2cc(NC(=O)c3ccc(C)c(Nc4nccc(-c5cccnc5)n4)c3)cc(C(F)(F)F)c2)cn1
REMARK SMILES IDX 11 1 12 2 13 3 14 4 15 5 16 6 30 7 9 8 10 9 8 10 7 12 6 13
REMARK SMILES IDX 31 14 5 15 32 16 37 17 4 18 3 19 38 20 2 21 39 22 1 23 33 24
REMARK SMILES IDX 34 25 35 26 36 27 17 28 18 30 19 31 29 32 20 33 22 34 21 35
REMARK SMILES IDX 23 36 24 37 28 38 25 39 27 40 26 41
REMARK H PARENT 8 11 17 29
ROOT
ATOM      1  C   UNL     1      27.625   1.642  52.872  1.00  0.00     0.042 A 
ATOM      2  C   UNL     1      27.319   1.029  54.097  1.00  0.00     0.014 A 
ATOM      3  C   UNL     1      28.034  -0.079  54.555  1.00  0.00     0.006 A 
ATOM      4  C   UNL     1      29.019  -0.668  53.779  1.00  0.00    -0.027 A 
ATOM      5  C   UNL     1      29.785  -1.881  54.287  1.00  0.00     0.046 C 
ATOM      6  C   UNL     1      29.257  -0.128  52.516  1.00  0.00     0.045 A 
ATOM      7  C   UNL     1      28.546   1.000  52.086  1.00  0.00     0.040 A 
ENDROOT
BRANCH   1   8
ATOM      8  C   UNL     1      26.843   2.732  52.256  1.00  0.00     0.255 C 
ATOM      9  O   UNL     1      27.057   2.923  51.084  1.00  0.00    -0.269 OA
ATOM     10  N   UNL     1      25.822   3.210  52.981  1.00  0.00    -0.322 N 
ATOM     11  H   UNL     1      25.704   2.830  53.931  1.00  0.00     0.170 HD
BRANCH  10  12
ATOM     12  C   UNL     1      24.908   4.172  52.569  1.00  0.00     0.044 A 
ATOM     13  C   UNL     1      24.033   4.789  53.497  1.00  0.00     0.052 A 
ATOM     14  C   UNL     1      24.748   4.469  51.198  1.00  0.00     0.039 A 
ATOM     15  C   UNL     1      23.117   5.765  53.093  1.00  0.00     0.049 A 
ATOM     16  C   UNL     1      23.831   5.479  50.791  1.00  0.00     0.060 A 
ATOM     17  C   UNL     1      23.008   6.085  51.743  1.00  0.00     0.039 A 
BRANCH  15  18
ATOM     18  N   UNL     1      22.276   6.412  54.010  1.00  0.00    -0.306 N 
ATOM     19  C   UNL     1      22.144   6.197  55.380  1.00  0.00     0.116 A 
ATOM     20  C   UNL     1      21.340   7.328  53.731  1.00  0.00     0.204 A 
ATOM     21  C   UNL     1      21.152   6.990  55.839  1.00  0.00     0.056 A 
ATOM     22  N   UNL     1      20.684   7.714  54.798  1.00  0.00    -0.242 NA
ATOM     23  C   UNL     1      20.651   7.126  57.257  1.00  0.00     0.068 C 
ENDBRANCH  15  18
BRANCH  16  24
ATOM     24  C   UNL     1      23.725   5.816  49.339  1.00  0.00     0.416 C 
ATOM     25  F   UNL     1      24.707   6.608  48.865  1.00  0.00    -0.166 F 
ATOM     26  F   UNL     1      23.861   4.730  48.586  1.00  0.00    -0.166 F 
ATOM     27  F   UNL     1      22.601   6.504  49.052  1.00  0.00    -0.166 F 
ENDBRANCH  16  24
ENDBRANCH  10  12
ENDBRANCH   1   8
BRANCH   6  28
ATOM     28  N   UNL     1      30.352  -0.602  51.783  1.00  0.00    -0.324 N 
ATOM     29  H   UNL     1      30.233  -1.372  51.110  1.00  0.00     0.170 HD
BRANCH  28  30
ATOM     30  C   UNL     1      31.608  -0.022  51.973  1.00  0.00     0.227 A 
ATOM     31  N   UNL     1      32.751  -0.291  51.355  1.00  0.00    -0.221 NA
ATOM     32  N   UNL     1      31.504   0.860  53.000  1.00  0.00    -0.213 NA
ATOM     33  C   UNL     1      33.837   0.392  51.765  1.00  0.00     0.117 A 
ATOM     34  C   UNL     1      32.616   1.491  53.394  1.00  0.00     0.077 A 
ATOM     35  C   UNL     1      33.800   1.265  52.784  1.00  0.00     0.049 A 
BRANCH  34  36
ATOM     36  C   UNL     1      32.442   2.471  54.497  1.00  0.00     0.019 A 
ATOM     37  C   UNL     1      33.351   3.522  54.698  1.00  0.00     0.013 A 
ATOM     38  C   UNL     1      31.357   2.359  55.389  1.00  0.00     0.121 A 
ATOM     39  C   UNL     1      33.152   4.393  55.761  1.00  0.00     0.021 A 
ATOM     40  N   UNL     1      31.164   3.191  56.421  1.00  0.00    -0.264 NA
ATOM     41  C   UNL     1      32.035   4.203  56.573  1.00  0.00     0.111 A 
ENDBRANCH  34  36
ENDBRANCH  28  30
ENDBRANCH   6  28
TORSDOF 7
ENDMDL
MODEL 6
REMARK VINA RESULT:   -11.653      2.844      4.109
REMARK INTER + INTRA:         -14.971
REMARK INTER:                 -13.741
REMARK INTRA:                  -1.230
REMARK CONF_INDEPENDENT:        2.088
REMARK UNBOUND:                -1.230
REMARK SMILES Cc1cn(-c2cc(NC(=O)c3ccc(C)c(Nc4nccc(-c5cccnc5)n4)c3)cc(C(F)(F)F)c2)cn1
REMARK SMILES IDX 11 1 12 2 13 3 14 4 15 5 16 6 30 7 9 8 10 9 8 10 7 12 6 13
REMARK SMILES IDX 31 14 5 15 32 16 37 17 4 18 3 19 38 20 2 21 39 22 1 23 33 24
REMARK SMILES IDX 34 25 35 26 36 27 17 28 18 30 19 31 29 32 20 33 22 34 21 35
REMARK SMILES IDX 23 36 24 37 28 38 25 39 27 40 26 41
REMARK H PARENT 8 11 17 29
ROOT
ATOM      1  C   UNL     1      28.210   2.343  52.624  1.00  0.00     0.042 A 
ATOM      2  C   UNL     1      28.030   2.590  53.993  1.00  0.00     0.014 A 
ATOM      3  C   UNL     1      28.823   1.962  54.955  1.00  0.00     0.006 A 
ATOM      4  C   UNL     1      29.764   1.009  54.600  1.00  0.00    -0.027 A 
ATOM      5  C   UNL     1      30.617   0.328  55.660  1.00  0.00     0.046 C 
ATOM      6  C   UNL     1      29.876   0.684  53.249  1.00  0.00     0.045 A 
ATOM      7  C   UNL     1      29.088   1.343  52.297  1.00  0.00     0.040 A 
ENDROOT
BRANCH   1   8
ATOM      8  C   UNL     1      27.337   2.862  51.552  1.00  0.00     0.255 C 
ATOM      9  O   UNL     1      27.892   3.118  50.511  1.00  0.00    -0.269 OA
ATOM     10  N   UNL     1      26.016   2.754  51.760  1.00  0.00    -0.322 N 
ATOM     11  H   UNL     1      25.716   2.382  52.672  1.00  0.00     0.170 HD
BRANCH  10  12
ATOM     12  C   UNL     1      25.017   3.097  50.858  1.00  0.00     0.044 A 
ATOM     13  C   UNL     1      24.261   2.099  50.195  1.00  0.00     0.052 A 
ATOM     14  C   UNL     1      24.815   4.446  50.490  1.00  0.00     0.039 A 
ATOM     15  C   UNL     1      23.247   2.436  49.293  1.00  0.00     0.049 A 
ATOM     16  C   UNL     1      23.767   4.788  49.588  1.00  0.00     0.060 A 
ATOM     17  C   UNL     1      23.025   3.773  48.980  1.00  0.00     0.039 A 
BRANCH  15  18
ATOM     18  N   UNL     1      22.465   1.456  48.664  1.00  0.00    -0.306 N 
ATOM     19  C   UNL     1      22.275   0.123  49.023  1.00  0.00     0.116 A 
ATOM     20  C   UNL     1      21.797   1.583  47.511  1.00  0.00     0.204 A 
ATOM     21  C   UNL     1      21.509  -0.464  48.077  1.00  0.00     0.056 A 
ATOM     22  N   UNL     1      21.194   0.474  47.157  1.00  0.00    -0.242 NA
ATOM     23  C   UNL     1      21.018  -1.891  48.033  1.00  0.00     0.068 C 
ENDBRANCH  15  18
BRANCH  16  24
ATOM     24  C   UNL     1      23.536   6.228  49.263  1.00  0.00     0.416 C 
ATOM     25  F   UNL     1      24.220   7.101  50.029  1.00  0.00    -0.166 F 
ATOM     26  F   UNL     1      23.983   6.520  48.047  1.00  0.00    -0.166 F 
ATOM     27  F   UNL     1      22.250   6.594  49.441  1.00  0.00    -0.166 F 
ENDBRANCH  16  24
ENDBRANCH  10  12
ENDBRANCH   1   8
BRANCH   6  28
ATOM     28  N   UNL     1      30.926  -0.153  52.849  1.00  0.00    -0.324 N 
ATOM     29  H   UNL     1      30.748  -1.145  52.639  1.00  0.00     0.170 HD
BRANCH  28  30
ATOM     30  C   UNL     1      32.216   0.370  52.737  1.00  0.00     0.227 A 
ATOM     31  N   UNL     1      32.770   1.369  53.412  1.00  0.00    -0.221 NA
ATOM     32  N   UNL     1      32.838  -0.283  51.722  1.00  0.00    -0.213 NA
ATOM     33  C   UNL     1      34.030   1.703  53.072  1.00  0.00     0.117 A 
ATOM     34  C   UNL     1      34.077   0.106  51.400  1.00  0.00     0.077 A 
ATOM     35  C   UNL     1      34.691   1.106  52.068  1.00  0.00     0.049 A 
BRANCH  34  36
ATOM     36  C   UNL     1      34.727  -0.662  50.306  1.00  0.00     0.019 A 
ATOM     37  C   UNL     1      36.035  -0.376  49.883  1.00  0.00     0.013 A 
ATOM     38  C   UNL     1      34.034  -1.697  49.649  1.00  0.00     0.121 A 
ATOM     39  C   UNL     1      36.582  -1.110  48.838  1.00  0.00     0.021 A 
ATOM     40  N   UNL     1      34.553  -2.403  48.636  1.00  0.00    -0.264 NA
ATOM     41  C   UNL     1      35.815  -2.125  48.269  1.00  0.00     0.111 A 
ENDBRANCH  34  36
ENDBRANCH  28  30
ENDBRANCH   6  28
TORSDOF 7
ENDMDL
MODEL 7
REMARK VINA RESULT:   -11.589      3.742     11.798
REMARK INTER + INTRA:         -14.829
REMARK INTER:                 -13.677
REMARK INTRA:                  -1.152
REMARK CONF_INDEPENDENT:        2.088
REMARK UNBOUND:                -1.152
REMARK SMILES Cc1cn(-c2cc(NC(=O)c3ccc(C)c(Nc4nccc(-c5cccnc5)n4)c3)cc(C(F)(F)F)c2)cn1
REMARK SMILES IDX 11 1 12 2 13 3 14 4 15 5 16 6 30 7 9 8 10 9 8 10 7 12 6 13
REMARK SMILES IDX 31 14 5 15 32 16 37 17 4 18 3 19 38 20 2 21 39 22 1 23 33 24
REMARK SMILES IDX 34 25 35 26 36 27 17 28 18 30 19 31 29 32 20 33 22 34 21 35
REMARK SMILES IDX 23 36 24 37 28 38 25 39 27 40 26 41
REMARK H PARENT 8 11 17 29
ROOT
ATOM      1  C   UNL     1      25.916   3.799  51.894  1.00  0.00     0.042 A 
ATOM      2  C   UNL     1      25.281   4.230  50.720  1.00  0.00     0.014 A 
ATOM      3  C   UNL     1      24.147   5.043  50.764  1.00  0.00     0.006 A 
ATOM      4  C   UNL     1      23.555   5.387  51.969  1.00  0.00    -0.027 A 
ATOM      5  C   UNL     1      22.314   6.268  52.001  1.00  0.00     0.046 C 
ATOM      6  C   UNL     1      24.122   4.876  53.135  1.00  0.00     0.045 A 
ATOM      7  C   UNL     1      25.275   4.083  53.072  1.00  0.00     0.040 A 
ENDROOT
BRANCH   1   8
ATOM      8  C   UNL     1      27.038   2.840  51.943  1.00  0.00     0.255 C 
ATOM      9  O   UNL     1      27.768   2.848  50.982  1.00  0.00    -0.269 OA
ATOM     10  N   UNL     1      27.268   2.259  53.130  1.00  0.00    -0.322 N 
ATOM     11  H   UNL     1      26.608   2.474  53.891  1.00  0.00     0.170 HD
BRANCH  10  12
ATOM     12  C   UNL     1      28.313   1.393  53.425  1.00  0.00     0.044 A 
ATOM     13  C   UNL     1      29.620   1.638  52.935  1.00  0.00     0.052 A 
ATOM     14  C   UNL     1      28.073   0.187  54.119  1.00  0.00     0.039 A 
ATOM     15  C   UNL     1      30.681   0.778  53.236  1.00  0.00     0.049 A 
ATOM     16  C   UNL     1      29.158  -0.676  54.443  1.00  0.00     0.060 A 
ATOM     17  C   UNL     1      30.437  -0.381  53.965  1.00  0.00     0.039 A 
BRANCH  15  18
ATOM     18  N   UNL     1      31.986   1.034  52.791  1.00  0.00    -0.306 N 
ATOM     19  C   UNL     1      32.620   0.587  51.633  1.00  0.00     0.116 A 
ATOM     20  C   UNL     1      32.941   1.701  53.450  1.00  0.00     0.204 A 
ATOM     21  C   UNL     1      33.902   1.012  51.663  1.00  0.00     0.056 A 
ATOM     22  N   UNL     1      34.074   1.734  52.792  1.00  0.00    -0.242 NA
ATOM     23  C   UNL     1      34.977   0.795  50.625  1.00  0.00     0.068 C 
ENDBRANCH  15  18
BRANCH  16  24
ATOM     24  C   UNL     1      28.884  -1.916  55.230  1.00  0.00     0.416 C 
ATOM     25  F   UNL     1      28.054  -2.795  54.637  1.00  0.00    -0.166 F 
ATOM     26  F   UNL     1      29.988  -2.638  55.382  1.00  0.00    -0.166 F 
ATOM     27  F   UNL     1      28.275  -1.653  56.405  1.00  0.00    -0.166 F 
ENDBRANCH  16  24
ENDBRANCH  10  12
ENDBRANCH   1   8
BRANCH   6  28
ATOM     28  N   UNL     1      23.643   5.340  54.367  1.00  0.00    -0.324 N 
ATOM     29  H   UNL     1      22.681   5.122  54.666  1.00  0.00     0.170 HD
BRANCH  28  30
ATOM     30  C   UNL     1      24.479   6.099  55.188  1.00  0.00     0.227 A 
ATOM     31  N   UNL     1      25.776   6.345  55.054  1.00  0.00    -0.221 NA
ATOM     32  N   UNL     1      23.746   6.514  56.253  1.00  0.00    -0.213 NA
ATOM     33  C   UNL     1      26.356   7.080  56.023  1.00  0.00     0.117 A 
ATOM     34  C   UNL     1      24.373   7.213  57.205  1.00  0.00     0.077 A 
ATOM     35  C   UNL     1      25.688   7.505  57.106  1.00  0.00     0.049 A 
BRANCH  34  36
ATOM     36  C   UNL     1      23.519   7.674  58.332  1.00  0.00     0.019 A 
ATOM     37  C   UNL     1      23.880   8.773  59.127  1.00  0.00     0.013 A 
ATOM     38  C   UNL     1      22.321   7.001  58.642  1.00  0.00     0.121 A 
ATOM     39  C   UNL     1      23.056   9.143  60.182  1.00  0.00     0.021 A 
ATOM     40  N   UNL     1      21.527   7.348  59.663  1.00  0.00    -0.264 NA
ATOM     41  C   UNL     1      21.883   8.419  60.391  1.00  0.00     0.111 A 
ENDBRANCH  34  36
ENDBRANCH  28  30
ENDBRANCH   6  28
TORSDOF 7
ENDMDL
MODEL 8
REMARK VINA RESULT:   -11.545      4.097     11.223
REMARK INTER + INTRA:         -14.808
REMARK INTER:                 -13.633
REMARK INTRA:                  -1.175
REMARK CONF_INDEPENDENT:        2.088
REMARK UNBOUND:                -1.175
REMARK SMILES Cc1cn(-c2cc(NC(=O)c3ccc(C)c(Nc4nccc(-c5cccnc5)n4)c3)cc(C(F)(F)F)c2)cn1
REMARK SMILES IDX 11 1 12 2 13 3 14 4 15 5 16 6 30 7 9 8 10 9 8 10 7 12 6 13
REMARK SMILES IDX 31 14 5 15 32 16 37 17 4 18 3 19 38 20 2 21 39 22 1 23 33 24
REMARK SMILES IDX 34 25 35 26 36 27 17 28 18 30 19 31 29 32 20 33 22 34 21 35
REMARK SMILES IDX 23 36 24 37 28 38 25 39 27 40 26 41
REMARK H PARENT 8 11 17 29
ROOT
ATOM      1  C   UNL     1      25.861   3.846  51.983  1.00  0.00     0.042 A 
ATOM      2  C   UNL     1      25.275   4.349  50.812  1.00  0.00     0.014 A 
ATOM      3  C   UNL     1      24.148   5.172  50.859  1.00  0.00     0.006 A 
ATOM      4  C   UNL     1      23.516   5.457  52.058  1.00  0.00    -0.027 A 
ATOM      5  C   UNL     1      22.283   6.349  52.094  1.00  0.00     0.046 C 
ATOM      6  C   UNL     1      24.033   4.875  53.215  1.00  0.00     0.045 A 
ATOM      7  C   UNL     1      25.179   4.073  53.150  1.00  0.00     0.040 A 
ENDROOT
BRANCH   1   8
ATOM      8  C   UNL     1      26.970   2.872  52.020  1.00  0.00     0.255 C 
ATOM      9  O   UNL     1      27.671   2.848  51.037  1.00  0.00    -0.269 OA
ATOM     10  N   UNL     1      27.228   2.315  53.212  1.00  0.00    -0.322 N 
ATOM     11  H   UNL     1      26.596   2.556  53.988  1.00  0.00     0.170 HD
BRANCH  10  12
ATOM     12  C   UNL     1      28.270   1.441  53.496  1.00  0.00     0.044 A 
ATOM     13  C   UNL     1      29.579   1.689  53.012  1.00  0.00     0.052 A 
ATOM     14  C   UNL     1      28.024   0.224  54.169  1.00  0.00     0.039 A 
ATOM     15  C   UNL     1      30.636   0.821  53.301  1.00  0.00     0.049 A 
ATOM     16  C   UNL     1      29.106  -0.648  54.481  1.00  0.00     0.060 A 
ATOM     17  C   UNL     1      30.387  -0.349  54.011  1.00  0.00     0.039 A 
BRANCH  15  18
ATOM     18  N   UNL     1      31.943   1.079  52.862  1.00  0.00    -0.306 N 
ATOM     19  C   UNL     1      32.601   0.593  51.734  1.00  0.00     0.116 A 
ATOM     20  C   UNL     1      32.878   1.790  53.504  1.00  0.00     0.204 A 
ATOM     21  C   UNL     1      33.875   1.040  51.762  1.00  0.00     0.056 A 
ATOM     22  N   UNL     1      34.019   1.814  52.861  1.00  0.00    -0.242 NA
ATOM     23  C   UNL     1      34.968   0.797  50.749  1.00  0.00     0.068 C 
ENDBRANCH  15  18
BRANCH  16  24
ATOM     24  C   UNL     1      28.826  -1.899  55.248  1.00  0.00     0.416 C 
ATOM     25  F   UNL     1      27.991  -2.765  54.640  1.00  0.00    -0.166 F 
ATOM     26  F   UNL     1      29.926  -2.630  55.386  1.00  0.00    -0.166 F 
ATOM     27  F   UNL     1      28.219  -1.653  56.427  1.00  0.00    -0.166 F 
ENDBRANCH  16  24
ENDBRANCH  10  12
ENDBRANCH   1   8
BRANCH   6  28
ATOM     28  N   UNL     1      23.513   5.276  54.452  1.00  0.00    -0.324 N 
ATOM     29  H   UNL     1      22.827   4.685  54.943  1.00  0.00     0.170 HD
BRANCH  28  30
ATOM     30  C   UNL     1      23.932   6.483  55.015  1.00  0.00     0.227 A 
ATOM     31  N   UNL     1      23.899   7.702  54.491  1.00  0.00    -0.221 NA
ATOM     32  N   UNL     1      24.484   6.204  56.224  1.00  0.00    -0.213 NA
ATOM     33  C   UNL     1      24.413   8.697  55.239  1.00  0.00     0.117 A 
ATOM     34  C   UNL     1      25.011   7.221  56.916  1.00  0.00     0.077 A 
ATOM     35  C   UNL     1      24.986   8.482  56.433  1.00  0.00     0.049 A 
BRANCH  34  36
ATOM     36  C   UNL     1      25.571   6.870  58.247  1.00  0.00     0.019 A 
ATOM     37  C   UNL     1      24.741   6.605  59.348  1.00  0.00     0.013 A 
ATOM     38  C   UNL     1      26.965   6.808  58.443  1.00  0.00     0.121 A 
ATOM     39  C   UNL     1      25.321   6.306  60.574  1.00  0.00     0.021 A 
ATOM     40  N   UNL     1      27.530   6.528  59.625  1.00  0.00    -0.264 NA
ATOM     41  C   UNL     1      26.712   6.254  60.654  1.00  0.00     0.111 A 
ENDBRANCH  34  36
ENDBRANCH  28  30
ENDBRANCH   6  28
TORSDOF 7
ENDMDL
MODEL 9
REMARK VINA RESULT:   -11.351      2.003      3.187
REMARK INTER + INTRA:         -14.698
REMARK INTER:                 -13.439
REMARK INTRA:                  -1.260
REMARK CONF_INDEPENDENT:        2.088
REMARK UNBOUND:                -1.260
REMARK SMILES Cc1cn(-c2cc(NC(=O)c3ccc(C)c(Nc4nccc(-c5cccnc5)n4)c3)cc(C(F)(F)F)c2)cn1
REMARK SMILES IDX 11 1 12 2 13 3 14 4 15 5 16 6 30 7 9 8 10 9 8 10 7 12 6 13
REMARK SMILES IDX 31 14 5 15 32 16 37 17 4 18 3 19 38 20 2 21 39 22 1 23 33 24
REMARK SMILES IDX 34 25 35 26 36 27 17 28 18 30 19 31 29 32 20 33 22 34 21 35
REMARK SMILES IDX 23 36 24 37 28 38 25 39 27 40 26 41
REMARK H PARENT 8 11 17 29
ROOT
ATOM      1  C   UNL     1      26.971   2.399  52.441  1.00  0.00     0.042 A 
ATOM      2  C   UNL     1      27.139   1.033  52.169  1.00  0.00     0.014 A 
ATOM      3  C   UNL     1      27.935   0.222  52.980  1.00  0.00     0.006 A 
ATOM      4  C   UNL     1      28.658   0.752  54.036  1.00  0.00    -0.027 A 
ATOM      5  C   UNL     1      29.529  -0.142  54.907  1.00  0.00     0.046 C 
ATOM      6  C   UNL     1      28.577   2.127  54.249  1.00  0.00     0.045 A 
ATOM      7  C   UNL     1      27.753   2.919  53.440  1.00  0.00     0.040 A 
ENDROOT
BRANCH   1   8
ATOM      8  C   UNL     1      26.254   3.350  51.570  1.00  0.00     0.255 C 
ATOM      9  O   UNL     1      26.456   3.223  50.387  1.00  0.00    -0.269 OA
ATOM     10  N   UNL     1      25.284   4.070  52.153  1.00  0.00    -0.322 N 
ATOM     11  H   UNL     1      25.160   3.953  53.168  1.00  0.00     0.170 HD
BRANCH  10  12
ATOM     12  C   UNL     1      24.431   4.960  51.511  1.00  0.00     0.044 A 
ATOM     13  C   UNL     1      23.805   6.011  52.226  1.00  0.00     0.052 A 
ATOM     14  C   UNL     1      24.074   4.764  50.159  1.00  0.00     0.039 A 
ATOM     15  C   UNL     1      22.953   6.917  51.588  1.00  0.00     0.049 A 
ATOM     16  C   UNL     1      23.224   5.701  49.505  1.00  0.00     0.060 A 
ATOM     17  C   UNL     1      22.652   6.741  50.241  1.00  0.00     0.039 A 
BRANCH  15  18
ATOM     18  N   UNL     1      22.362   7.986  52.278  1.00  0.00    -0.306 N 
ATOM     19  C   UNL     1      22.708   9.335  52.264  1.00  0.00     0.116 A 
ATOM     20  C   UNL     1      21.378   7.909  53.182  1.00  0.00     0.204 A 
ATOM     21  C   UNL     1      21.918   9.983  53.147  1.00  0.00     0.056 A 
ATOM     22  N   UNL     1      21.070   9.079  53.687  1.00  0.00    -0.242 NA
ATOM     23  C   UNL     1      21.901  11.457  53.472  1.00  0.00     0.068 C 
ENDBRANCH  15  18
BRANCH  16  24
ATOM     24  C   UNL     1      22.911   5.503  48.058  1.00  0.00     0.416 C 
ATOM     25  F   UNL     1      22.916   4.220  47.644  1.00  0.00    -0.166 F 
ATOM     26  F   UNL     1      21.666   5.875  47.783  1.00  0.00    -0.166 F 
ATOM     27  F   UNL     1      23.815   6.096  47.251  1.00  0.00    -0.166 F 
ENDBRANCH  16  24
ENDBRANCH  10  12
ENDBRANCH   1   8
BRANCH   6  28
ATOM     28  N   UNL     1      29.166   2.659  55.404  1.00  0.00    -0.324 N 
ATOM     29  H   UNL     1      28.596   2.837  56.242  1.00  0.00     0.170 HD
BRANCH  28  30
ATOM     30  C   UNL     1      30.532   2.946  55.408  1.00  0.00     0.227 A 
ATOM     31  N   UNL     1      31.190   3.856  56.116  1.00  0.00    -0.221 NA
ATOM     32  N   UNL     1      31.121   2.162  54.468  1.00  0.00    -0.213 NA
ATOM     33  C   UNL     1      32.514   3.955  55.894  1.00  0.00     0.117 A 
ATOM     34  C   UNL     1      32.433   2.319  54.260  1.00  0.00     0.077 A 
ATOM     35  C   UNL     1      33.149   3.219  54.968  1.00  0.00     0.049 A 
BRANCH  34  36
ATOM     36  C   UNL     1      33.036   1.415  53.246  1.00  0.00     0.019 A 
ATOM     37  C   UNL     1      34.427   1.286  53.110  1.00  0.00     0.013 A 
ATOM     38  C   UNL     1      32.217   0.667  52.378  1.00  0.00     0.121 A 
ATOM     39  C   UNL     1      34.934   0.445  52.128  1.00  0.00     0.021 A 
ATOM     40  N   UNL     1      32.699  -0.140  51.424  1.00  0.00    -0.264 NA
ATOM     41  C   UNL     1      34.034  -0.263  51.333  1.00  0.00     0.111 A 
ENDBRANCH  34  36
ENDBRANCH  28  30
ENDBRANCH   6  28
TORSDOF 7
ENDMDL
MODEL 10
REMARK VINA RESULT:   -11.160      3.710     11.965
REMARK INTER + INTRA:         -14.512
REMARK INTER:                 -13.248
REMARK INTRA:                  -1.264
REMARK CONF_INDEPENDENT:        2.088
REMARK UNBOUND:                -1.264
REMARK SMILES Cc1cn(-c2cc(NC(=O)c3ccc(C)c(Nc4nccc(-c5cccnc5)n4)c3)cc(C(F)(F)F)c2)cn1
REMARK SMILES IDX 11 1 12 2 13 3 14 4 15 5 16 6 30 7 9 8 10 9 8 10 7 12 6 13
REMARK SMILES IDX 31 14 5 15 32 16 37 17 4 18 3 19 38 20 2 21 39 22 1 23 33 24
REMARK SMILES IDX 34 25 35 26 36 27 17 28 18 30 19 31 29 32 20 33 22 34 21 35
REMARK SMILES IDX 23 36 24 37 28 38 25 39 27 40 26 41
REMARK H PARENT 8 11 17 29
ROOT
ATOM      1  C   UNL     1      26.194   3.381  51.534  1.00  0.00     0.042 A 
ATOM      2  C   UNL     1      25.530   3.684  50.336  1.00  0.00     0.014 A 
ATOM      3  C   UNL     1      24.287   4.319  50.334  1.00  0.00     0.006 A 
ATOM      4  C   UNL     1      23.623   4.601  51.517  1.00  0.00    -0.027 A 
ATOM      5  C   UNL     1      22.264   5.287  51.500  1.00  0.00     0.046 C 
ATOM      6  C   UNL     1      24.231   4.209  52.709  1.00  0.00     0.045 A 
ATOM      7  C   UNL     1      25.489   3.595  52.690  1.00  0.00     0.040 A 
ENDROOT
BRANCH   1   8
ATOM      8  C   UNL     1      27.444   2.602  51.632  1.00  0.00     0.255 C 
ATOM      9  O   UNL     1      28.331   2.950  50.892  1.00  0.00    -0.269 OA
ATOM     10  N   UNL     1      27.546   1.777  52.685  1.00  0.00    -0.322 N 
ATOM     11  H   UNL     1      26.724   1.702  53.302  1.00  0.00     0.170 HD
BRANCH  10  12
ATOM     12  C   UNL     1      28.658   1.014  53.020  1.00  0.00     0.044 A 
ATOM     13  C   UNL     1      29.938   1.330  52.502  1.00  0.00     0.052 A 
ATOM     14  C   UNL     1      28.516  -0.163  53.787  1.00  0.00     0.039 A 
ATOM     15  C   UNL     1      31.064   0.575  52.841  1.00  0.00     0.049 A 
ATOM     16  C   UNL     1      29.668  -0.918  54.149  1.00  0.00     0.060 A 
ATOM     17  C   UNL     1      30.917  -0.554  53.641  1.00  0.00     0.039 A 
BRANCH  15  18
ATOM     18  N   UNL     1      32.343   0.903  52.367  1.00  0.00    -0.306 N 
ATOM     19  C   UNL     1      32.975   0.492  51.195  1.00  0.00     0.116 A 
ATOM     20  C   UNL     1      33.273   1.624  53.004  1.00  0.00     0.204 A 
ATOM     21  C   UNL     1      34.232   0.989  51.196  1.00  0.00     0.056 A 
ATOM     22  N   UNL     1      34.387   1.721  52.321  1.00  0.00    -0.242 NA
ATOM     23  C   UNL     1      35.293   0.833  50.134  1.00  0.00     0.068 C 
ENDBRANCH  15  18
BRANCH  16  24
ATOM     24  C   UNL     1      29.497  -2.126  55.012  1.00  0.00     0.416 C 
ATOM     25  F   UNL     1      28.934  -3.187  54.401  1.00  0.00    -0.166 F 
ATOM     26  F   UNL     1      30.673  -2.616  55.386  1.00  0.00    -0.166 F 
ATOM     27  F   UNL     1      28.678  -1.896  56.059  1.00  0.00    -0.166 F 
ENDBRANCH  16  24
ENDBRANCH  10  12
ENDBRANCH   1   8
BRANCH   6  28
ATOM     28  N   UNL     1      23.659   4.627  53.918  1.00  0.00    -0.324 N 
ATOM     29  H   UNL     1      22.997   4.016  54.417  1.00  0.00     0.170 HD
BRANCH  28  30
ATOM     30  C   UNL     1      23.994   5.877  54.440  1.00  0.00     0.227 A 
ATOM     31  N   UNL     1      25.008   6.205  55.230  1.00  0.00    -0.221 NA
ATOM     32  N   UNL     1      23.028   6.754  54.062  1.00  0.00    -0.213 NA
ATOM     33  C   UNL     1      25.076   7.489  55.629  1.00  0.00     0.117 A 
ATOM     34  C   UNL     1      23.120   8.011  54.510  1.00  0.00     0.077 A 
ATOM     35  C   UNL     1      24.143   8.398  55.301  1.00  0.00     0.049 A 
BRANCH  34  36
ATOM     36  C   UNL     1      22.058   8.940  54.040  1.00  0.00     0.019 A 
ATOM     37  C   UNL     1      20.709   8.554  54.002  1.00  0.00     0.013 A 
ATOM     38  C   UNL     1      22.385  10.238  53.602  1.00  0.00     0.121 A 
ATOM     39  C   UNL     1      19.763   9.455  53.529  1.00  0.00     0.021 A 
ATOM     40  N   UNL     1      21.479  11.108  53.138  1.00  0.00    -0.264 NA
ATOM     41  C   UNL     1      20.193  10.722  53.137  1.00  0.00     0.111 A 
ENDBRANCH  34  36
ENDBRANCH  28  30
ENDBRANCH   6  28
TORSDOF 7
ENDMDL
MODEL 11
REMARK VINA RESULT:   -11.098      4.544      8.004
REMARK INTER + INTRA:         -14.105
REMARK INTER:                 -13.186
REMARK INTRA:                  -0.919
REMARK CONF_INDEPENDENT:        2.088
REMARK UNBOUND:                -0.919
REMARK SMILES Cc1cn(-c2cc(NC(=O)c3ccc(C)c(Nc4nccc(-c5cccnc5)n4)c3)cc(C(F)(F)F)c2)cn1
REMARK SMILES IDX 11 1 12 2 13 3 14 4 15 5 16 6 30 7 9 8 10 9 8 10 7 12 6 13
REMARK SMILES IDX 31 14 5 15 32 16 37 17 4 18 3 19 38 20 2 21 39 22 1 23 33 24
REMARK SMILES IDX 34 25 35 26 36 27 17 28 18 30 19 31 29 32 20 33 22 34 21 35
REMARK SMILES IDX 23 36 24 37 28 38 25 39 27 40 26 41
REMARK H PARENT 8 11 17 29
ROOT
ATOM      1  C   UNL     1      34.033  -0.560  50.774  1.00  0.00     0.042 A 
ATOM      2  C   UNL     1      34.078  -1.816  50.150  1.00  0.00     0.014 A 
ATOM      3  C   UNL     1      35.093  -2.145  49.250  1.00  0.00     0.006 A 
ATOM      4  C   UNL     1      36.049  -1.215  48.874  1.00  0.00    -0.027 A 
ATOM      5  C   UNL     1      37.146  -1.585  47.886  1.00  0.00     0.046 C 
ATOM      6  C   UNL     1      35.949   0.067  49.412  1.00  0.00     0.045 A 
ATOM      7  C   UNL     1      34.938   0.370  50.333  1.00  0.00     0.040 A 
ENDROOT
BRANCH   1   8
ATOM      8  C   UNL     1      32.933  -0.086  51.636  1.00  0.00     0.255 C 
ATOM      9  O   UNL     1      33.069   1.026  52.085  1.00  0.00    -0.269 OA
ATOM     10  N   UNL     1      31.811  -0.821  51.622  1.00  0.00    -0.322 N 
ATOM     11  H   UNL     1      31.828  -1.688  51.067  1.00  0.00     0.170 HD
BRANCH  10  12
ATOM     12  C   UNL     1      30.629  -0.519  52.286  1.00  0.00     0.044 A 
ATOM     13  C   UNL     1      29.840   0.592  51.899  1.00  0.00     0.052 A 
ATOM     14  C   UNL     1      30.250  -1.240  53.440  1.00  0.00     0.039 A 
ATOM     15  C   UNL     1      28.645   0.898  52.555  1.00  0.00     0.049 A 
ATOM     16  C   UNL     1      29.020  -0.941  54.093  1.00  0.00     0.060 A 
ATOM     17  C   UNL     1      28.257   0.146  53.659  1.00  0.00     0.039 A 
BRANCH  15  18
ATOM     18  N   UNL     1      27.835   1.971  52.152  1.00  0.00    -0.306 N 
ATOM     19  C   UNL     1      26.903   2.692  52.895  1.00  0.00     0.116 A 
ATOM     20  C   UNL     1      27.726   2.472  50.916  1.00  0.00     0.204 A 
ATOM     21  C   UNL     1      26.299   3.577  52.072  1.00  0.00     0.056 A 
ATOM     22  N   UNL     1      26.852   3.446  50.845  1.00  0.00    -0.242 NA
ATOM     23  C   UNL     1      25.235   4.590  52.417  1.00  0.00     0.068 C 
ENDBRANCH  15  18
BRANCH  16  24
ATOM     24  C   UNL     1      28.613  -1.759  55.275  1.00  0.00     0.416 C 
ATOM     25  F   UNL     1      27.729  -2.741  55.011  1.00  0.00    -0.166 F 
ATOM     26  F   UNL     1      29.644  -2.441  55.761  1.00  0.00    -0.166 F 
ATOM     27  F   UNL     1      27.991  -1.023  56.219  1.00  0.00    -0.166 F 
ENDBRANCH  16  24
ENDBRANCH  10  12
ENDBRANCH   1   8
BRANCH   6  28
ATOM     28  N   UNL     1      36.992   0.972  49.176  1.00  0.00    -0.324 N 
ATOM     29  H   UNL     1      36.786   1.945  48.908  1.00  0.00     0.170 HD
BRANCH  28  30
ATOM     30  C   UNL     1      38.315   0.545  49.308  1.00  0.00     0.227 A 
ATOM     31  N   UNL     1      38.869  -0.159  50.287  1.00  0.00    -0.221 NA
ATOM     32  N   UNL     1      39.017   1.050  48.261  1.00  0.00    -0.213 NA
ATOM     33  C   UNL     1      40.190  -0.400  50.187  1.00  0.00     0.117 A 
ATOM     34  C   UNL     1      40.333   0.811  48.222  1.00  0.00     0.077 A 
ATOM     35  C   UNL     1      40.940   0.085  49.185  1.00  0.00     0.049 A 
BRANCH  34  36
ATOM     36  C   UNL     1      41.050   1.356  47.039  1.00  0.00     0.019 A 
ATOM     37  C   UNL     1      42.148   0.688  46.472  1.00  0.00     0.013 A 
ATOM     38  C   UNL     1      40.650   2.576  46.459  1.00  0.00     0.121 A 
ATOM     39  C   UNL     1      42.794   1.257  45.382  1.00  0.00     0.021 A 
ATOM     40  N   UNL     1      41.275   3.133  45.414  1.00  0.00    -0.264 NA
ATOM     41  C   UNL     1      42.305   2.461  44.876  1.00  0.00     0.111 A 
ENDBRANCH  34  36
ENDBRANCH  28  30
ENDBRANCH   6  28
TORSDOF 7
ENDMDL
MODEL 12
REMARK VINA RESULT:   -11.068      1.779      2.668
REMARK INTER + INTRA:         -14.356
REMARK INTER:                 -13.156
REMARK INTRA:                  -1.199
REMARK CONF_INDEPENDENT:        2.088
REMARK UNBOUND:                -1.199
REMARK SMILES Cc1cn(-c2cc(NC(=O)c3ccc(C)c(Nc4nccc(-c5cccnc5)n4)c3)cc(C(F)(F)F)c2)cn1
REMARK SMILES IDX 11 1 12 2 13 3 14 4 15 5 16 6 30 7 9 8 10 9 8 10 7 12 6 13
REMARK SMILES IDX 31 14 5 15 32 16 37 17 4 18 3 19 38 20 2 21 39 22 1 23 33 24
REMARK SMILES IDX 34 25 35 26 36 27 17 28 18 30 19 31 29 32 20 33 22 34 21 35
REMARK SMILES IDX 23 36 24 37 28 38 25 39 27 40 26 41
REMARK H PARENT 8 11 17 29
ROOT
ATOM      1  C   UNL     1      27.033   2.335  52.505  1.00  0.00     0.042 A 
ATOM      2  C   UNL     1      27.154   1.241  51.636  1.00  0.00     0.014 A 
ATOM      3  C   UNL     1      28.090   0.231  51.864  1.00  0.00     0.006 A 
ATOM      4  C   UNL     1      28.994   0.313  52.911  1.00  0.00    -0.027 A 
ATOM      5  C   UNL     1      30.015  -0.792  53.142  1.00  0.00     0.046 C 
ATOM      6  C   UNL     1      28.948   1.449  53.717  1.00  0.00     0.045 A 
ATOM      7  C   UNL     1      27.984   2.438  53.487  1.00  0.00     0.040 A 
ENDROOT
BRANCH   1   8
ATOM      8  C   UNL     1      26.163   3.505  52.273  1.00  0.00     0.255 C 
ATOM      9  O   UNL     1      25.986   3.798  51.116  1.00  0.00    -0.269 OA
ATOM     10  N   UNL     1      25.474   3.950  53.335  1.00  0.00    -0.322 N 
ATOM     11  H   UNL     1      25.654   3.487  54.237  1.00  0.00     0.170 HD
BRANCH  10  12
ATOM     12  C   UNL     1      24.539   4.977  53.329  1.00  0.00     0.044 A 
ATOM     13  C   UNL     1      23.802   5.297  54.496  1.00  0.00     0.052 A 
ATOM     14  C   UNL     1      24.216   5.646  52.128  1.00  0.00     0.039 A 
ATOM     15  C   UNL     1      22.867   6.336  54.502  1.00  0.00     0.049 A 
ATOM     16  C   UNL     1      23.279   6.719  52.142  1.00  0.00     0.060 A 
ATOM     17  C   UNL     1      22.597   7.021  53.322  1.00  0.00     0.039 A 
BRANCH  15  18
ATOM     18  N   UNL     1      22.163   6.688  55.664  1.00  0.00    -0.306 N 
ATOM     19  C   UNL     1      22.661   7.112  56.895  1.00  0.00     0.116 A 
ATOM     20  C   UNL     1      20.842   6.598  55.858  1.00  0.00     0.204 A 
ATOM     21  C   UNL     1      21.620   7.255  57.744  1.00  0.00     0.056 A 
ATOM     22  N   UNL     1      20.488   6.960  57.067  1.00  0.00    -0.242 NA
ATOM     23  C   UNL     1      21.651   7.711  59.183  1.00  0.00     0.068 C 
ENDBRANCH  15  18
BRANCH  16  24
ATOM     24  C   UNL     1      23.000   7.449  50.868  1.00  0.00     0.416 C 
ATOM     25  F   UNL     1      24.086   7.722  50.118  1.00  0.00    -0.166 F 
ATOM     26  F   UNL     1      22.274   6.706  50.041  1.00  0.00    -0.166 F 
ATOM     27  F   UNL     1      22.455   8.664  51.083  1.00  0.00    -0.166 F 
ENDBRANCH  16  24
ENDBRANCH  10  12
ENDBRANCH   1   8
BRANCH   6  28
ATOM     28  N   UNL     1      29.738   1.478  54.874  1.00  0.00    -0.324 N 
ATOM     29  H   UNL     1      29.372   1.107  55.762  1.00  0.00     0.170 HD
BRANCH  28  30
ATOM     30  C   UNL     1      31.026   2.013  54.812  1.00  0.00     0.227 A 
ATOM     31  N   UNL     1      31.550   3.004  55.522  1.00  0.00    -0.221 NA
ATOM     32  N   UNL     1      31.685   1.386  53.804  1.00  0.00    -0.213 NA
ATOM     33  C   UNL     1      32.816   3.356  55.228  1.00  0.00     0.117 A 
ATOM     34  C   UNL     1      32.930   1.791  53.529  1.00  0.00     0.077 A 
ATOM     35  C   UNL     1      33.514   2.783  54.234  1.00  0.00     0.049 A 
BRANCH  34  36
ATOM     36  C   UNL     1      33.621   1.049  52.441  1.00  0.00     0.019 A 
ATOM     37  C   UNL     1      33.456  -0.335  52.276  1.00  0.00     0.013 A 
ATOM     38  C   UNL     1      34.479   1.722  51.550  1.00  0.00     0.121 A 
ATOM     39  C   UNL     1      34.147  -0.980  51.257  1.00  0.00     0.021 A 
ATOM     40  N   UNL     1      35.154   1.105  50.571  1.00  0.00    -0.264 NA
ATOM     41  C   UNL     1      34.958  -0.215  50.420  1.00  0.00     0.111 A 
ENDBRANCH  34  36
ENDBRANCH  28  30
ENDBRANCH   6  28
TORSDOF 7
ENDMDL
MODEL 13
REMARK VINA RESULT:   -10.991      3.843     11.745
REMARK INTER + INTRA:         -14.169
REMARK INTER:                 -13.079
REMARK INTRA:                  -1.090
REMARK CONF_INDEPENDENT:        2.088
REMARK UNBOUND:                -1.090
REMARK SMILES Cc1cn(-c2cc(NC(=O)c3ccc(C)c(Nc4nccc(-c5cccnc5)n4)c3)cc(C(F)(F)F)c2)cn1
REMARK SMILES IDX 11 1 12 2 13 3 14 4 15 5 16 6 30 7 9 8 10 9 8 10 7 12 6 13
REMARK SMILES IDX 31 14 5 15 32 16 37 17 4 18 3 19 38 20 2 21 39 22 1 23 33 24
REMARK SMILES IDX 34 25 35 26 36 27 17 28 18 30 19 31 29 32 20 33 22 34 21 35
REMARK SMILES IDX 23 36 24 37 28 38 25 39 27 40 26 41
REMARK H PARENT 8 11 17 29
ROOT
ATOM      1  C   UNL     1      25.618   3.635  51.838  1.00  0.00     0.042 A 
ATOM      2  C   UNL     1      24.755   3.512  50.739  1.00  0.00     0.014 A 
ATOM      3  C   UNL     1      23.441   3.979  50.790  1.00  0.00     0.006 A 
ATOM      4  C   UNL     1      22.911   4.508  51.956  1.00  0.00    -0.027 A 
ATOM      5  C   UNL     1      21.474   5.007  51.999  1.00  0.00     0.046 C 
ATOM      6  C   UNL     1      23.732   4.538  53.082  1.00  0.00     0.045 A 
ATOM      7  C   UNL     1      25.055   4.088  53.003  1.00  0.00     0.040 A 
ENDROOT
BRANCH   1   8
ATOM      8  C   UNL     1      26.974   3.058  51.915  1.00  0.00     0.255 C 
ATOM      9  O   UNL     1      27.505   2.839  50.853  1.00  0.00    -0.269 OA
ATOM     10  N   UNL     1      27.558   3.077  53.122  1.00  0.00    -0.322 N 
ATOM     11  H   UNL     1      26.993   3.428  53.909  1.00  0.00     0.170 HD
BRANCH  10  12
ATOM     12  C   UNL     1      28.853   2.666  53.409  1.00  0.00     0.044 A 
ATOM     13  C   UNL     1      29.490   1.670  52.627  1.00  0.00     0.052 A 
ATOM     14  C   UNL     1      29.520   3.143  54.558  1.00  0.00     0.039 A 
ATOM     15  C   UNL     1      30.797   1.257  52.901  1.00  0.00     0.049 A 
ATOM     16  C   UNL     1      30.860   2.738  54.823  1.00  0.00     0.060 A 
ATOM     17  C   UNL     1      31.461   1.776  54.008  1.00  0.00     0.039 A 
BRANCH  15  18
ATOM     18  N   UNL     1      31.451   0.303  52.108  1.00  0.00    -0.306 N 
ATOM     19  C   UNL     1      32.818   0.076  51.960  1.00  0.00     0.116 A 
ATOM     20  C   UNL     1      30.883  -0.543  51.241  1.00  0.00     0.204 A 
ATOM     21  C   UNL     1      32.988  -0.886  51.027  1.00  0.00     0.056 A 
ATOM     22  N   UNL     1      31.764  -1.283  50.613  1.00  0.00    -0.242 NA
ATOM     23  C   UNL     1      34.283  -1.486  50.536  1.00  0.00     0.068 C 
ENDBRANCH  15  18
BRANCH  16  24
ATOM     24  C   UNL     1      31.563   3.305  56.013  1.00  0.00     0.416 C 
ATOM     25  F   UNL     1      31.648   2.476  57.073  1.00  0.00    -0.166 F 
ATOM     26  F   UNL     1      32.842   3.540  55.745  1.00  0.00    -0.166 F 
ATOM     27  F   UNL     1      30.934   4.389  56.513  1.00  0.00    -0.166 F 
ENDBRANCH  16  24
ENDBRANCH  10  12
ENDBRANCH   1   8
BRANCH   6  28
ATOM     28  N   UNL     1      23.275   5.214  54.222  1.00  0.00    -0.324 N 
ATOM     29  H   UNL     1      22.283   5.165  54.492  1.00  0.00     0.170 HD
BRANCH  28  30
ATOM     30  C   UNL     1      24.177   5.955  54.988  1.00  0.00     0.227 A 
ATOM     31  N   UNL     1      25.473   6.155  54.786  1.00  0.00    -0.221 NA
ATOM     32  N   UNL     1      23.513   6.409  56.082  1.00  0.00    -0.213 NA
ATOM     33  C   UNL     1      26.126   6.882  55.713  1.00  0.00     0.117 A 
ATOM     34  C   UNL     1      24.210   7.099  56.991  1.00  0.00     0.077 A 
ATOM     35  C   UNL     1      25.527   7.345  56.822  1.00  0.00     0.049 A 
BRANCH  34  36
ATOM     36  C   UNL     1      23.430   7.604  58.151  1.00  0.00     0.019 A 
ATOM     37  C   UNL     1      24.037   8.342  59.180  1.00  0.00     0.013 A 
ATOM     38  C   UNL     1      22.051   7.337  58.257  1.00  0.00     0.121 A 
ATOM     39  C   UNL     1      23.263   8.767  60.253  1.00  0.00     0.021 A 
ATOM     40  N   UNL     1      21.302   7.736  59.292  1.00  0.00    -0.264 NA
ATOM     41  C   UNL     1      21.902   8.463  60.249  1.00  0.00     0.111 A 
ENDBRANCH  34  36
ENDBRANCH  28  30
ENDBRANCH   6  28
TORSDOF 7
ENDMDL
MODEL 14
REMARK VINA RESULT:   -10.937      2.736      5.029
REMARK INTER + INTRA:         -14.648
REMARK INTER:                 -13.025
REMARK INTRA:                  -1.623
REMARK CONF_INDEPENDENT:        2.088
REMARK UNBOUND:                -1.623
REMARK SMILES Cc1cn(-c2cc(NC(=O)c3ccc(C)c(Nc4nccc(-c5cccnc5)n4)c3)cc(C(F)(F)F)c2)cn1
REMARK SMILES IDX 11 1 12 2 13 3 14 4 15 5 16 6 30 7 9 8 10 9 8 10 7 12 6 13
REMARK SMILES IDX 31 14 5 15 32 16 37 17 4 18 3 19 38 20 2 21 39 22 1 23 33 24
REMARK SMILES IDX 34 25 35 26 36 27 17 28 18 30 19 31 29 32 20 33 22 34 21 35
REMARK SMILES IDX 23 36 24 37 28 38 25 39 27 40 26 41
REMARK H PARENT 8 11 17 29
ROOT
ATOM      1  C   UNL     1      27.847   1.344  53.193  1.00  0.00     0.042 A 
ATOM      2  C   UNL     1      27.564   0.643  54.375  1.00  0.00     0.014 A 
ATOM      3  C   UNL     1      28.269  -0.511  54.722  1.00  0.00     0.006 A 
ATOM      4  C   UNL     1      29.218  -1.055  53.872  1.00  0.00    -0.027 A 
ATOM      5  C   UNL     1      29.974  -2.318  54.260  1.00  0.00     0.046 C 
ATOM      6  C   UNL     1      29.430  -0.421  52.649  1.00  0.00     0.045 A 
ATOM      7  C   UNL     1      28.731   0.750  52.331  1.00  0.00     0.040 A 
ENDROOT
BRANCH   1   8
ATOM      8  C   UNL     1      27.070   2.494  52.689  1.00  0.00     0.255 C 
ATOM      9  O   UNL     1      27.223   2.749  51.519  1.00  0.00    -0.269 OA
ATOM     10  N   UNL     1      26.108   2.960  53.500  1.00  0.00    -0.322 N 
ATOM     11  H   UNL     1      26.031   2.527  54.431  1.00  0.00     0.170 HD
BRANCH  10  12
ATOM     12  C   UNL     1      25.207   3.973  53.198  1.00  0.00     0.044 A 
ATOM     13  C   UNL     1      24.921   4.316  51.853  1.00  0.00     0.052 A 
ATOM     14  C   UNL     1      24.648   4.765  54.225  1.00  0.00     0.039 A 
ATOM     15  C   UNL     1      24.009   5.327  51.540  1.00  0.00     0.049 A 
ATOM     16  C   UNL     1      23.701   5.780  53.904  1.00  0.00     0.060 A 
ATOM     17  C   UNL     1      23.426   6.065  52.565  1.00  0.00     0.039 A 
BRANCH  15  18
ATOM     18  N   UNL     1      23.687   5.646  50.212  1.00  0.00    -0.306 N 
ATOM     19  C   UNL     1      22.481   5.470  49.537  1.00  0.00     0.116 A 
ATOM     20  C   UNL     1      24.522   6.110  49.275  1.00  0.00     0.204 A 
ATOM     21  C   UNL     1      22.659   5.841  48.250  1.00  0.00     0.056 A 
ATOM     22  N   UNL     1      23.934   6.269  48.114  1.00  0.00    -0.242 NA
ATOM     23  C   UNL     1      21.641   5.848  47.136  1.00  0.00     0.068 C 
ENDBRANCH  15  18
BRANCH  16  24
ATOM     24  C   UNL     1      23.079   6.563  55.015  1.00  0.00     0.416 C 
ATOM     25  F   UNL     1      21.998   5.990  55.579  1.00  0.00    -0.166 F 
ATOM     26  F   UNL     1      23.907   6.665  56.048  1.00  0.00    -0.166 F 
ATOM     27  F   UNL     1      22.619   7.762  54.602  1.00  0.00    -0.166 F 
ENDBRANCH  16  24
ENDBRANCH  10  12
ENDBRANCH   1   8
BRANCH   6  28
ATOM     28  N   UNL     1      30.494  -0.855  51.848  1.00  0.00    -0.324 N 
ATOM     29  H   UNL     1      30.364  -1.638  51.192  1.00  0.00     0.170 HD
BRANCH  28  30
ATOM     30  C   UNL     1      31.733  -0.219  51.947  1.00  0.00     0.227 A 
ATOM     31  N   UNL     1      32.851  -0.464  51.276  1.00  0.00    -0.221 NA
ATOM     32  N   UNL     1      31.647   0.697  52.947  1.00  0.00    -0.213 NA
ATOM     33  C   UNL     1      33.927   0.278  51.600  1.00  0.00     0.117 A 
ATOM     34  C   UNL     1      32.752   1.386  53.255  1.00  0.00     0.077 A 
ATOM     35  C   UNL     1      33.909   1.186  52.589  1.00  0.00     0.049 A 
BRANCH  34  36
ATOM     36  C   UNL     1      32.596   2.399  54.331  1.00  0.00     0.019 A 
ATOM     37  C   UNL     1      31.523   2.354  55.235  1.00  0.00     0.013 A 
ATOM     38  C   UNL     1      33.525   3.451  54.463  1.00  0.00     0.121 A 
ATOM     39  C   UNL     1      31.415   3.342  56.206  1.00  0.00     0.021 A 
ATOM     40  N   UNL     1      33.421   4.411  55.391  1.00  0.00    -0.264 NA
ATOM     41  C   UNL     1      32.399   4.328  56.259  1.00  0.00     0.111 A 
ENDBRANCH  34  36
ENDBRANCH  28  30
ENDBRANCH   6  28
TORSDOF 7
ENDMDL
MODEL 15
REMARK VINA RESULT:   -10.898      3.588     12.082
REMARK INTER + INTRA:         -14.316
REMARK INTER:                 -12.986
REMARK INTRA:                  -1.330
REMARK CONF_INDEPENDENT:        2.088
REMARK UNBOUND:                -1.330
REMARK SMILES Cc1cn(-c2cc(NC(=O)c3ccc(C)c(Nc4nccc(-c5cccnc5)n4)c3)cc(C(F)(F)F)c2)cn1
REMARK SMILES IDX 11 1 12 2 13 3 14 4 15 5 16 6 30 7 9 8 10 9 8 10 7 12 6 13
REMARK SMILES IDX 31 14 5 15 32 16 37 17 4 18 3 19 38 20 2 21 39 22 1 23 33 24
REMARK SMILES IDX 34 25 35 26 36 27 17 28 18 30 19 31 29 32 20 33 22 34 21 35
REMARK SMILES IDX 23 36 24 37 28 38 25 39 27 40 26 41
REMARK H PARENT 8 11 17 29
ROOT
ATOM      1  C   UNL     1      25.618   3.676  51.897  1.00  0.00     0.042 A 
ATOM      2  C   UNL     1      24.858   3.819  50.726  1.00  0.00     0.014 A 
ATOM      3  C   UNL     1      23.523   4.224  50.770  1.00  0.00     0.006 A 
ATOM      4  C   UNL     1      22.872   4.420  51.977  1.00  0.00    -0.027 A 
ATOM      5  C   UNL     1      21.413   4.854  52.011  1.00  0.00     0.046 C 
ATOM      6  C   UNL     1      23.592   4.179  53.147  1.00  0.00     0.045 A 
ATOM      7  C   UNL     1      24.938   3.797  53.081  1.00  0.00     0.040 A 
ENDROOT
BRANCH   1   8
ATOM      8  C   UNL     1      26.989   3.133  51.951  1.00  0.00     0.255 C 
ATOM      9  O   UNL     1      27.564   3.068  50.892  1.00  0.00    -0.269 OA
ATOM     10  N   UNL     1      27.530   3.013  53.173  1.00  0.00    -0.322 N 
ATOM     11  H   UNL     1      26.927   3.243  53.976  1.00  0.00     0.170 HD
BRANCH  10  12
ATOM     12  C   UNL     1      28.828   2.605  53.454  1.00  0.00     0.044 A 
ATOM     13  C   UNL     1      29.458   1.598  52.682  1.00  0.00     0.052 A 
ATOM     14  C   UNL     1      29.505   3.100  54.591  1.00  0.00     0.039 A 
ATOM     15  C   UNL     1      30.767   1.189  52.951  1.00  0.00     0.049 A 
ATOM     16  C   UNL     1      30.846   2.698  54.850  1.00  0.00     0.060 A 
ATOM     17  C   UNL     1      31.440   1.724  54.045  1.00  0.00     0.039 A 
BRANCH  15  18
ATOM     18  N   UNL     1      31.414   0.223  52.167  1.00  0.00    -0.306 N 
ATOM     19  C   UNL     1      32.718   0.224  51.675  1.00  0.00     0.116 A 
ATOM     20  C   UNL     1      30.868  -0.881  51.643  1.00  0.00     0.204 A 
ATOM     21  C   UNL     1      32.877  -0.869  50.897  1.00  0.00     0.056 A 
ATOM     22  N   UNL     1      31.718  -1.564  50.916  1.00  0.00    -0.242 NA
ATOM     23  C   UNL     1      34.118  -1.313  50.161  1.00  0.00     0.068 C 
ENDBRANCH  15  18
BRANCH  16  24
ATOM     24  C   UNL     1      31.560   3.283  56.026  1.00  0.00     0.416 C 
ATOM     25  F   UNL     1      31.650   2.472  57.099  1.00  0.00    -0.166 F 
ATOM     26  F   UNL     1      32.838   3.508  55.744  1.00  0.00    -0.166 F 
ATOM     27  F   UNL     1      30.938   4.377  56.511  1.00  0.00    -0.166 F 
ENDBRANCH  16  24
ENDBRANCH  10  12
ENDBRANCH   1   8
BRANCH   6  28
ATOM     28  N   UNL     1      23.008   4.526  54.372  1.00  0.00    -0.324 N 
ATOM     29  H   UNL     1      22.441   3.840  54.889  1.00  0.00     0.170 HD
BRANCH  28  30
ATOM     30  C   UNL     1      23.203   5.809  54.887  1.00  0.00     0.227 A 
ATOM     31  N   UNL     1      24.095   6.222  55.778  1.00  0.00    -0.221 NA
ATOM     32  N   UNL     1      22.237   6.611  54.369  1.00  0.00    -0.213 NA
ATOM     33  C   UNL     1      24.036   7.519  56.137  1.00  0.00     0.117 A 
ATOM     34  C   UNL     1      22.199   7.884  54.780  1.00  0.00     0.077 A 
ATOM     35  C   UNL     1      23.097   8.356  55.672  1.00  0.00     0.049 A 
BRANCH  34  36
ATOM     36  C   UNL     1      21.147   8.729  54.158  1.00  0.00     0.019 A 
ATOM     37  C   UNL     1      19.788   8.379  54.224  1.00  0.00     0.013 A 
ATOM     38  C   UNL     1      21.491   9.907  53.466  1.00  0.00     0.121 A 
ATOM     39  C   UNL     1      18.851   9.194  53.602  1.00  0.00     0.021 A 
ATOM     40  N   UNL     1      20.593  10.692  52.858  1.00  0.00    -0.264 NA
ATOM     41  C   UNL     1      19.298  10.347  52.959  1.00  0.00     0.111 A 
ENDBRANCH  34  36
ENDBRANCH  28  30
ENDBRANCH   6  28
TORSDOF 7
ENDMDL
MODEL 16
REMARK VINA RESULT:   -10.886      8.341     15.233
REMARK INTER + INTRA:         -14.278
REMARK INTER:                 -12.974
REMARK INTRA:                  -1.305
REMARK CONF_INDEPENDENT:        2.088
REMARK UNBOUND:                -1.305
REMARK SMILES Cc1cn(-c2cc(NC(=O)c3ccc(C)c(Nc4nccc(-c5cccnc5)n4)c3)cc(C(F)(F)F)c2)cn1
REMARK SMILES IDX 11 1 12 2 13 3 14 4 15 5 16 6 30 7 9 8 10 9 8 10 7 12 6 13
REMARK SMILES IDX 31 14 5 15 32 16 37 17 4 18 3 19 38 20 2 21 39 22 1 23 33 24
REMARK SMILES IDX 34 25 35 26 36 27 17 28 18 30 19 31 29 32 20 33 22 34 21 35
REMARK SMILES IDX 23 36 24 37 28 38 25 39 27 40 26 41
REMARK H PARENT 8 11 17 29
ROOT
ATOM      1  C   UNL     1      36.015  -1.622  49.253  1.00  0.00     0.042 A 
ATOM      2  C   UNL     1      35.247  -2.791  49.148  1.00  0.00     0.014 A 
ATOM      3  C   UNL     1      33.875  -2.786  49.405  1.00  0.00     0.006 A 
ATOM      4  C   UNL     1      33.233  -1.643  49.854  1.00  0.00    -0.027 A 
ATOM      5  C   UNL     1      31.737  -1.653  50.137  1.00  0.00     0.046 C 
ATOM      6  C   UNL     1      34.010  -0.504  50.059  1.00  0.00     0.045 A 
ATOM      7  C   UNL     1      35.380  -0.523  49.772  1.00  0.00     0.040 A 
ENDROOT
BRANCH   1   8
ATOM      8  C   UNL     1      37.484  -1.564  49.125  1.00  0.00     0.255 C 
ATOM      9  O   UNL     1      38.067  -1.077  50.062  1.00  0.00    -0.269 OA
ATOM     10  N   UNL     1      38.019  -2.271  48.118  1.00  0.00    -0.322 N 
ATOM     11  H   UNL     1      37.363  -2.742  47.478  1.00  0.00     0.170 HD
BRANCH  10  12
ATOM     12  C   UNL     1      39.375  -2.427  47.860  1.00  0.00     0.044 A 
ATOM     13  C   UNL     1      39.929  -2.028  46.619  1.00  0.00     0.052 A 
ATOM     14  C   UNL     1      40.209  -3.096  48.782  1.00  0.00     0.039 A 
ATOM     15  C   UNL     1      41.294  -2.171  46.353  1.00  0.00     0.049 A 
ATOM     16  C   UNL     1      41.603  -3.221  48.519  1.00  0.00     0.060 A 
ATOM     17  C   UNL     1      42.114  -2.786  47.294  1.00  0.00     0.039 A 
BRANCH  15  18
ATOM     18  N   UNL     1      41.860  -1.741  45.144  1.00  0.00    -0.306 N 
ATOM     19  C   UNL     1      42.158  -0.444  44.729  1.00  0.00     0.116 A 
ATOM     20  C   UNL     1      42.151  -2.500  44.081  1.00  0.00     0.204 A 
ATOM     21  C   UNL     1      42.610  -0.502  43.457  1.00  0.00     0.056 A 
ATOM     22  N   UNL     1      42.629  -1.800  43.081  1.00  0.00    -0.242 NA
ATOM     23  C   UNL     1      43.076   0.639  42.585  1.00  0.00     0.068 C 
ENDBRANCH  15  18
BRANCH  16  24
ATOM     24  C   UNL     1      42.473  -3.880  49.540  1.00  0.00     0.416 C 
ATOM     25  F   UNL     1      42.426  -5.227  49.544  1.00  0.00    -0.166 F 
ATOM     26  F   UNL     1      43.757  -3.651  49.292  1.00  0.00    -0.166 F 
ATOM     27  F   UNL     1      42.125  -3.550  50.801  1.00  0.00    -0.166 F 
ENDBRANCH  16  24
ENDBRANCH  10  12
ENDBRANCH   1   8
BRANCH   6  28
ATOM     28  N   UNL     1      33.360   0.702  50.355  1.00  0.00    -0.324 N 
ATOM     29  H   UNL     1      33.016   1.306  49.595  1.00  0.00     0.170 HD
BRANCH  28  30
ATOM     30  C   UNL     1      33.183   1.078  51.688  1.00  0.00     0.227 A 
ATOM     31  N   UNL     1      33.884   1.944  52.409  1.00  0.00    -0.221 NA
ATOM     32  N   UNL     1      32.173   0.326  52.197  1.00  0.00    -0.213 NA
ATOM     33  C   UNL     1      33.524   2.089  53.698  1.00  0.00     0.117 A 
ATOM     34  C   UNL     1      31.874   0.482  53.491  1.00  0.00     0.077 A 
ATOM     35  C   UNL     1      32.546   1.364  54.262  1.00  0.00     0.049 A 
BRANCH  34  36
ATOM     36  C   UNL     1      30.739  -0.337  53.991  1.00  0.00     0.019 A 
ATOM     37  C   UNL     1      29.634   0.248  54.630  1.00  0.00     0.013 A 
ATOM     38  C   UNL     1      30.751  -1.739  53.849  1.00  0.00     0.121 A 
ATOM     39  C   UNL     1      28.614  -0.569  55.099  1.00  0.00     0.021 A 
ATOM     40  N   UNL     1      29.775  -2.533  54.307  1.00  0.00    -0.264 NA
ATOM     41  C   UNL     1      28.718  -1.944  54.890  1.00  0.00     0.111 A 
ENDBRANCH  34  36
ENDBRANCH  28  30
ENDBRANCH   6  28
TORSDOF 7
ENDMDL
MODEL 17
REMARK VINA RESULT:   -10.831      4.612      7.508
REMARK INTER + INTRA:         -13.813
REMARK INTER:                 -12.919
REMARK INTRA:                  -0.894
REMARK CONF_INDEPENDENT:        2.088
REMARK UNBOUND:                -0.894
REMARK SMILES Cc1cn(-c2cc(NC(=O)c3ccc(C)c(Nc4nccc(-c5cccnc5)n4)c3)cc(C(F)(F)F)c2)cn1
REMARK SMILES IDX 11 1 12 2 13 3 14 4 15 5 16 6 30 7 9 8 10 9 8 10 7 12 6 13
REMARK SMILES IDX 31 14 5 15 32 16 37 17 4 18 3 19 38 20 2 21 39 22 1 23 33 24
REMARK SMILES IDX 34 25 35 26 36 27 17 28 18 30 19 31 29 32 20 33 22 34 21 35
REMARK SMILES IDX 23 36 24 37 28 38 25 39 27 40 26 41
REMARK H PARENT 8 11 17 29
ROOT
ATOM      1  C   UNL     1      23.056   5.916  52.575  1.00  0.00     0.042 A 
ATOM      2  C   UNL     1      22.730   5.546  51.262  1.00  0.00     0.014 A 
ATOM      3  C   UNL     1      23.301   4.424  50.660  1.00  0.00     0.006 A 
ATOM      4  C   UNL     1      24.275   3.679  51.306  1.00  0.00    -0.027 A 
ATOM      5  C   UNL     1      24.894   2.462  50.634  1.00  0.00     0.046 C 
ATOM      6  C   UNL     1      24.678   4.102  52.571  1.00  0.00     0.045 A 
ATOM      7  C   UNL     1      24.075   5.216  53.168  1.00  0.00     0.040 A 
ENDROOT
BRANCH   1   8
ATOM      8  C   UNL     1      22.600   7.151  53.242  1.00  0.00     0.255 C 
ATOM      9  O   UNL     1      23.351   8.092  53.160  1.00  0.00    -0.269 OA
ATOM     10  N   UNL     1      21.318   7.172  53.636  1.00  0.00    -0.322 N 
ATOM     11  H   UNL     1      20.774   6.307  53.505  1.00  0.00     0.170 HD
BRANCH  10  12
ATOM     12  C   UNL     1      20.656   8.253  54.205  1.00  0.00     0.044 A 
ATOM     13  C   UNL     1      19.598   8.900  53.521  1.00  0.00     0.052 A 
ATOM     14  C   UNL     1      21.103   8.807  55.425  1.00  0.00     0.039 A 
ATOM     15  C   UNL     1      18.920   9.982  54.090  1.00  0.00     0.049 A 
ATOM     16  C   UNL     1      20.397   9.895  56.013  1.00  0.00     0.060 A 
ATOM     17  C   UNL     1      19.339  10.484  55.317  1.00  0.00     0.039 A 
BRANCH  15  18
ATOM     18  N   UNL     1      17.843  10.603  53.439  1.00  0.00    -0.306 N 
ATOM     19  C   UNL     1      16.665  11.109  53.983  1.00  0.00     0.116 A 
ATOM     20  C   UNL     1      17.686  10.757  52.119  1.00  0.00     0.204 A 
ATOM     21  C   UNL     1      15.881  11.537  52.970  1.00  0.00     0.056 A 
ATOM     22  N   UNL     1      16.552  11.338  51.813  1.00  0.00    -0.242 NA
ATOM     23  C   UNL     1      14.517  12.179  53.057  1.00  0.00     0.068 C 
ENDBRANCH  15  18
BRANCH  16  24
ATOM     24  C   UNL     1      20.855  10.422  57.334  1.00  0.00     0.416 C 
ATOM     25  F   UNL     1      19.867  10.763  58.185  1.00  0.00    -0.166 F 
ATOM     26  F   UNL     1      21.500   9.488  58.023  1.00  0.00    -0.166 F 
ATOM     27  F   UNL     1      21.570  11.560  57.212  1.00  0.00    -0.166 F 
ENDBRANCH  16  24
ENDBRANCH  10  12
ENDBRANCH   1   8
BRANCH   6  28
ATOM     28  N   UNL     1      25.538   3.277  53.307  1.00  0.00    -0.324 N 
ATOM     29  H   UNL     1      25.271   2.958  54.249  1.00  0.00     0.170 HD
BRANCH  28  30
ATOM     30  C   UNL     1      26.760   2.890  52.753  1.00  0.00     0.227 A 
ATOM     31  N   UNL     1      27.435   3.447  51.756  1.00  0.00    -0.221 NA
ATOM     32  N   UNL     1      27.147   1.744  53.370  1.00  0.00    -0.213 NA
ATOM     33  C   UNL     1      28.579   2.840  51.387  1.00  0.00     0.117 A 
ATOM     34  C   UNL     1      28.274   1.160  52.947  1.00  0.00     0.077 A 
ATOM     35  C   UNL     1      29.006   1.698  51.947  1.00  0.00     0.049 A 
BRANCH  34  36
ATOM     36  C   UNL     1      28.673  -0.072  53.677  1.00  0.00     0.019 A 
ATOM     37  C   UNL     1      27.980  -0.508  54.817  1.00  0.00     0.013 A 
ATOM     38  C   UNL     1      29.778  -0.832  53.247  1.00  0.00     0.121 A 
ATOM     39  C   UNL     1      28.413  -1.653  55.474  1.00  0.00     0.021 A 
ATOM     40  N   UNL     1      30.205  -1.932  53.880  1.00  0.00    -0.264 NA
ATOM     41  C   UNL     1      29.508  -2.341  54.953  1.00  0.00     0.111 A 
ENDBRANCH  34  36
ENDBRANCH  28  30
ENDBRANCH   6  28
TORSDOF 7
ENDMDL
MODEL 18
REMARK VINA RESULT:   -10.817      4.117     11.207
REMARK INTER + INTRA:         -14.165
REMARK INTER:                 -12.905
REMARK INTRA:                  -1.260
REMARK CONF_INDEPENDENT:        2.088
REMARK UNBOUND:                -1.260
REMARK SMILES Cc1cn(-c2cc(NC(=O)c3ccc(C)c(Nc4nccc(-c5cccnc5)n4)c3)cc(C(F)(F)F)c2)cn1
REMARK SMILES IDX 11 1 12 2 13 3 14 4 15 5 16 6 30 7 9 8 10 9 8 10 7 12 6 13
REMARK SMILES IDX 31 14 5 15 32 16 37 17 4 18 3 19 38 20 2 21 39 22 1 23 33 24
REMARK SMILES IDX 34 25 35 26 36 27 17 28 18 30 19 31 29 32 20 33 22 34 21 35
REMARK SMILES IDX 23 36 24 37 28 38 25 39 27 40 26 41
REMARK H PARENT 8 11 17 29
ROOT
ATOM      1  C   UNL     1      25.615   3.744  51.883  1.00  0.00     0.042 A 
ATOM      2  C   UNL     1      24.804   3.772  50.739  1.00  0.00     0.014 A 
ATOM      3  C   UNL     1      23.469   4.175  50.803  1.00  0.00     0.006 A 
ATOM      4  C   UNL     1      22.869   4.482  52.014  1.00  0.00    -0.027 A 
ATOM      5  C   UNL     1      21.410   4.912  52.070  1.00  0.00     0.046 C 
ATOM      6  C   UNL     1      23.641   4.355  53.168  1.00  0.00     0.045 A 
ATOM      7  C   UNL     1      24.986   3.974  53.079  1.00  0.00     0.040 A 
ENDROOT
BRANCH   1   8
ATOM      8  C   UNL     1      26.992   3.213  51.928  1.00  0.00     0.255 C 
ATOM      9  O   UNL     1      27.576   3.197  50.872  1.00  0.00    -0.269 OA
ATOM     10  N   UNL     1      27.523   3.049  53.149  1.00  0.00    -0.322 N 
ATOM     11  H   UNL     1      26.911   3.241  53.955  1.00  0.00     0.170 HD
BRANCH  10  12
ATOM     12  C   UNL     1      28.823   2.645  53.426  1.00  0.00     0.044 A 
ATOM     13  C   UNL     1      29.458   1.651  52.640  1.00  0.00     0.052 A 
ATOM     14  C   UNL     1      29.497   3.127  54.569  1.00  0.00     0.039 A 
ATOM     15  C   UNL     1      30.769   1.245  52.905  1.00  0.00     0.049 A 
ATOM     16  C   UNL     1      30.840   2.728  54.824  1.00  0.00     0.060 A 
ATOM     17  C   UNL     1      31.439   1.768  54.006  1.00  0.00     0.039 A 
BRANCH  15  18
ATOM     18  N   UNL     1      31.421   0.292  52.108  1.00  0.00    -0.306 N 
ATOM     19  C   UNL     1      32.765  -0.077  52.107  1.00  0.00     0.116 A 
ATOM     20  C   UNL     1      30.889  -0.408  51.099  1.00  0.00     0.204 A 
ATOM     21  C   UNL     1      32.957  -0.970  51.112  1.00  0.00     0.056 A 
ATOM     22  N   UNL     1      31.765  -1.188  50.514  1.00  0.00    -0.242 NA
ATOM     23  C   UNL     1      34.238  -1.671  50.727  1.00  0.00     0.068 C 
ENDBRANCH  15  18
BRANCH  16  24
ATOM     24  C   UNL     1      31.550   3.301  56.007  1.00  0.00     0.416 C 
ATOM     25  F   UNL     1      31.650   2.474  57.067  1.00  0.00    -0.166 F 
ATOM     26  F   UNL     1      32.825   3.544  55.727  1.00  0.00    -0.166 F 
ATOM     27  F   UNL     1      30.919   4.381  56.511  1.00  0.00    -0.166 F 
ENDBRANCH  16  24
ENDBRANCH  10  12
ENDBRANCH   1   8
BRANCH   6  28
ATOM     28  N   UNL     1      23.109   4.814  54.379  1.00  0.00    -0.324 N 
ATOM     29  H   UNL     1      22.470   4.218  54.925  1.00  0.00     0.170 HD
BRANCH  28  30
ATOM     30  C   UNL     1      23.451   6.086  54.842  1.00  0.00     0.227 A 
ATOM     31  N   UNL     1      23.277   7.261  54.251  1.00  0.00    -0.221 NA
ATOM     32  N   UNL     1      24.096   5.934  56.027  1.00  0.00    -0.213 NA
ATOM     33  C   UNL     1      23.744   8.342  54.904  1.00  0.00     0.117 A 
ATOM     34  C   UNL     1      24.570   7.034  56.623  1.00  0.00     0.077 A 
ATOM     35  C   UNL     1      24.404   8.254  56.070  1.00  0.00     0.049 A 
BRANCH  34  36
ATOM     36  C   UNL     1      25.238   6.818  57.933  1.00  0.00     0.019 A 
ATOM     37  C   UNL     1      24.502   6.698  59.123  1.00  0.00     0.013 A 
ATOM     38  C   UNL     1      26.642   6.741  58.017  1.00  0.00     0.121 A 
ATOM     39  C   UNL     1      25.181   6.523  60.322  1.00  0.00     0.021 A 
ATOM     40  N   UNL     1      27.302   6.580  59.171  1.00  0.00    -0.264 NA
ATOM     41  C   UNL     1      26.572   6.443  60.290  1.00  0.00     0.111 A 
ENDBRANCH  34  36
ENDBRANCH  28  30
ENDBRANCH   6  28
TORSDOF 7
ENDMDL
MODEL 19
REMARK VINA RESULT:   -10.805      4.663     13.539
REMARK INTER + INTRA:         -14.210
REMARK INTER:                 -12.893
REMARK INTRA:                  -1.316
REMARK CONF_INDEPENDENT:        2.088
REMARK UNBOUND:                -1.316
REMARK SMILES Cc1cn(-c2cc(NC(=O)c3ccc(C)c(Nc4nccc(-c5cccnc5)n4)c3)cc(C(F)(F)F)c2)cn1
REMARK SMILES IDX 11 1 12 2 13 3 14 4 15 5 16 6 30 7 9 8 10 9 8 10 7 12 6 13
REMARK SMILES IDX 31 14 5 15 32 16 37 17 4 18 3 19 38 20 2 21 39 22 1 23 33 24
REMARK SMILES IDX 34 25 35 26 36 27 17 28 18 30 19 31 29 32 20 33 22 34 21 35
REMARK SMILES IDX 23 36 24 37 28 38 25 39 27 40 26 41
REMARK H PARENT 8 11 17 29
ROOT
ATOM      1  C   UNL     1      21.124   7.231  54.274  1.00  0.00     0.042 A 
ATOM      2  C   UNL     1      20.990   7.379  55.663  1.00  0.00     0.014 A 
ATOM      3  C   UNL     1      20.265   8.436  56.215  1.00  0.00     0.006 A 
ATOM      4  C   UNL     1      19.719   9.427  55.415  1.00  0.00    -0.027 A 
ATOM      5  C   UNL     1      18.937  10.579  56.032  1.00  0.00     0.046 C 
ATOM      6  C   UNL     1      19.937   9.342  54.041  1.00  0.00     0.045 A 
ATOM      7  C   UNL     1      20.646   8.260  53.505  1.00  0.00     0.040 A 
ENDROOT
BRANCH   1   8
ATOM      8  C   UNL     1      21.974   6.222  53.611  1.00  0.00     0.255 C 
ATOM      9  O   UNL     1      21.894   5.104  54.057  1.00  0.00    -0.269 OA
ATOM     10  N   UNL     1      22.535   6.592  52.450  1.00  0.00    -0.322 N 
ATOM     11  H   UNL     1      22.386   7.565  52.148  1.00  0.00     0.170 HD
BRANCH  10  12
ATOM     12  C   UNL     1      23.300   5.783  51.619  1.00  0.00     0.044 A 
ATOM     13  C   UNL     1      24.396   5.045  52.131  1.00  0.00     0.052 A 
ATOM     14  C   UNL     1      23.077   5.772  50.225  1.00  0.00     0.039 A 
ATOM     15  C   UNL     1      25.165   4.220  51.305  1.00  0.00     0.049 A 
ATOM     16  C   UNL     1      23.848   4.914  49.389  1.00  0.00     0.060 A 
ATOM     17  C   UNL     1      24.900   4.180  49.940  1.00  0.00     0.039 A 
BRANCH  15  18
ATOM     18  N   UNL     1      26.226   3.453  51.810  1.00  0.00    -0.306 N 
ATOM     19  C   UNL     1      26.586   3.222  53.136  1.00  0.00     0.116 A 
ATOM     20  C   UNL     1      27.184   2.847  51.100  1.00  0.00     0.204 A 
ATOM     21  C   UNL     1      27.724   2.495  53.144  1.00  0.00     0.056 A 
ATOM     22  N   UNL     1      28.064   2.243  51.860  1.00  0.00    -0.242 NA
ATOM     23  C   UNL     1      28.490   1.981  54.339  1.00  0.00     0.068 C 
ENDBRANCH  15  18
BRANCH  16  24
ATOM     24  C   UNL     1      23.550   4.877  47.925  1.00  0.00     0.416 C 
ATOM     25  F   UNL     1      22.242   4.944  47.607  1.00  0.00    -0.166 F 
ATOM     26  F   UNL     1      24.037   5.950  47.312  1.00  0.00    -0.166 F 
ATOM     27  F   UNL     1      23.954   3.726  47.348  1.00  0.00    -0.166 F 
ENDBRANCH  16  24
ENDBRANCH  10  12
ENDBRANCH   1   8
BRANCH   6  28
ATOM     28  N   UNL     1      19.261  10.238  53.202  1.00  0.00    -0.324 N 
ATOM     29  H   UNL     1      19.785  10.812  52.526  1.00  0.00     0.170 HD
BRANCH  28  30
ATOM     30  C   UNL     1      17.872  10.347  53.291  1.00  0.00     0.227 A 
ATOM     31  N   UNL     1      17.123  11.442  53.315  1.00  0.00    -0.221 NA
ATOM     32  N   UNL     1      17.369   9.094  53.434  1.00  0.00    -0.213 NA
ATOM     33  C   UNL     1      15.795  11.264  53.451  1.00  0.00     0.117 A 
ATOM     34  C   UNL     1      16.047   8.969  53.598  1.00  0.00     0.077 A 
ATOM     35  C   UNL     1      15.240  10.052  53.612  1.00  0.00     0.049 A 
BRANCH  34  36
ATOM     36  C   UNL     1      15.543   7.576  53.715  1.00  0.00     0.019 A 
ATOM     37  C   UNL     1      14.714   7.181  54.777  1.00  0.00     0.013 A 
ATOM     38  C   UNL     1      15.900   6.604  52.761  1.00  0.00     0.121 A 
ATOM     39  C   UNL     1      14.293   5.859  54.849  1.00  0.00     0.021 A 
ATOM     40  N   UNL     1      15.504   5.326  52.829  1.00  0.00    -0.264 NA
ATOM     41  C   UNL     1      14.691   4.982  53.841  1.00  0.00     0.111 A 
ENDBRANCH  34  36
ENDBRANCH  28  30
ENDBRANCH   6  28
TORSDOF 7
ENDMDL
MODEL 20
REMARK VINA RESULT:   -10.468      5.786     10.923
REMARK INTER + INTRA:         -13.751
REMARK INTER:                 -12.556
REMARK INTRA:                  -1.194
REMARK CONF_INDEPENDENT:        2.088
REMARK UNBOUND:                -1.194
REMARK SMILES Cc1cn(-c2cc(NC(=O)c3ccc(C)c(Nc4nccc(-c5cccnc5)n4)c3)cc(C(F)(F)F)c2)cn1
REMARK SMILES IDX 11 1 12 2 13 3 14 4 15 5 16 6 30 7 9 8 10 9 8 10 7 12 6 13
REMARK SMILES IDX 31 14 5 15 32 16 37 17 4 18 3 19 38 20 2 21 39 22 1 23 33 24
REMARK SMILES IDX 34 25 35 26 36 27 17 28 18 30 19 31 29 32 20 33 22 34 21 35
REMARK SMILES IDX 23 36 24 37 28 38 25 39 27 40 26 41
REMARK H PARENT 8 11 17 29
ROOT
ATOM      1  C   UNL     1      22.408   6.457  55.345  1.00  0.00     0.042 A 
ATOM      2  C   UNL     1      21.691   7.577  54.898  1.00  0.00     0.014 A 
ATOM      3  C   UNL     1      21.197   8.529  55.792  1.00  0.00     0.006 A 
ATOM      4  C   UNL     1      21.324   8.362  57.162  1.00  0.00    -0.027 A 
ATOM      5  C   UNL     1      20.775   9.404  58.125  1.00  0.00     0.046 C 
ATOM      6  C   UNL     1      21.945   7.199  57.616  1.00  0.00     0.045 A 
ATOM      7  C   UNL     1      22.455   6.269  56.702  1.00  0.00     0.040 A 
ENDROOT
BRANCH   1   8
ATOM      8  C   UNL     1      22.853   5.343  54.486  1.00  0.00     0.255 C 
ATOM      9  O   UNL     1      22.040   4.469  54.308  1.00  0.00    -0.269 OA
ATOM     10  N   UNL     1      23.992   5.539  53.805  1.00  0.00    -0.322 N 
ATOM     11  H   UNL     1      24.499   6.417  53.985  1.00  0.00     0.170 HD
BRANCH  10  12
ATOM     12  C   UNL     1      24.551   4.665  52.881  1.00  0.00     0.044 A 
ATOM     13  C   UNL     1      23.802   4.205  51.770  1.00  0.00     0.052 A 
ATOM     14  C   UNL     1      25.837   4.122  53.093  1.00  0.00     0.039 A 
ATOM     15  C   UNL     1      24.359   3.334  50.829  1.00  0.00     0.049 A 
ATOM     16  C   UNL     1      26.411   3.252  52.123  1.00  0.00     0.060 A 
ATOM     17  C   UNL     1      25.647   2.847  51.025  1.00  0.00     0.039 A 
BRANCH  15  18
ATOM     18  N   UNL     1      23.639   2.906  49.703  1.00  0.00    -0.306 N 
ATOM     19  C   UNL     1      22.848   1.769  49.550  1.00  0.00     0.116 A 
ATOM     20  C   UNL     1      23.642   3.469  48.490  1.00  0.00     0.204 A 
ATOM     21  C   UNL     1      22.422   1.721  48.269  1.00  0.00     0.056 A 
ATOM     22  N   UNL     1      22.903   2.811  47.630  1.00  0.00    -0.242 NA
ATOM     23  C   UNL     1      21.526   0.690  47.626  1.00  0.00     0.068 C 
ENDBRANCH  15  18
BRANCH  16  24
ATOM     24  C   UNL     1      27.797   2.739  52.343  1.00  0.00     0.416 C 
ATOM     25  F   UNL     1      28.723   3.214  51.486  1.00  0.00    -0.166 F 
ATOM     26  F   UNL     1      28.274   3.142  53.515  1.00  0.00    -0.166 F 
ATOM     27  F   UNL     1      27.880   1.402  52.184  1.00  0.00    -0.166 F 
ENDBRANCH  16  24
ENDBRANCH  10  12
ENDBRANCH   1   8
BRANCH   6  28
ATOM     28  N   UNL     1      22.229   7.086  58.983  1.00  0.00    -0.324 N 
ATOM     29  H   UNL     1      21.660   6.472  59.582  1.00  0.00     0.170 HD
BRANCH  28  30
ATOM     30  C   UNL     1      23.291   7.812  59.526  1.00  0.00     0.227 A 
ATOM     31  N   UNL     1      23.527   9.116  59.462  1.00  0.00    -0.221 NA
ATOM     32  N   UNL     1      24.144   6.925  60.102  1.00  0.00    -0.213 NA
ATOM     33  C   UNL     1      24.660   9.555  60.042  1.00  0.00     0.117 A 
ATOM     34  C   UNL     1      25.273   7.406  60.636  1.00  0.00     0.077 A 
ATOM     35  C   UNL     1      25.549   8.727  60.612  1.00  0.00     0.049 A 
BRANCH  34  36
ATOM     36  C   UNL     1      26.155   6.400  61.285  1.00  0.00     0.019 A 
ATOM     37  C   UNL     1      26.400   6.420  62.667  1.00  0.00     0.013 A 
ATOM     38  C   UNL     1      26.785   5.401  60.517  1.00  0.00     0.121 A 
ATOM     39  C   UNL     1      27.254   5.470  63.214  1.00  0.00     0.021 A 
ATOM     40  N   UNL     1      27.615   4.488  61.038  1.00  0.00    -0.264 NA
ATOM     41  C   UNL     1      27.812   4.514  62.366  1.00  0.00     0.111 A 
ENDBRANCH  34  36
ENDBRANCH  28  30
ENDBRANCH   6  28
TORSDOF 7
ENDMDL
