MODEL 1
REMARK VINA RESULT:   -14.418      0.000      0.000
REMARK INTER + INTRA:         -17.673
REMARK INTER:                 -16.506
REMARK INTRA:                  -1.167
REMARK CONF_INDEPENDENT:        2.088
REMARK UNBOUND:                -1.167
REMARK SMILES Cc1cn(-c2cc(NC(=O)c3ccc(C)c(Nc4nccc(-c5cccnc5)n4)c3)cc(C(F)(F)F)c2)cn1
REMARK SMILES IDX 11 1 12 2 13 3 14 4 15 5 16 6 30 7 9 8 10 9 8 10 7 12 6 13
REMARK SMILES IDX 31 14 5 15 32 16 37 17 4 18 3 19 38 20 2 21 39 22 1 23 33 24
REMARK SMILES IDX 34 25 35 26 36 27 17 28 18 30 19 31 29 32 20 33 22 34 21 35
REMARK SMILES IDX 23 36 24 37 28 38 25 39 27 40 26 41
REMARK H PARENT 8 11 17 29
ROOT
ATOM      1  C   UNL     1      27.953   1.696  53.072  1.00  0.00     0.042 A 
ATOM      2  C   UNL     1      27.650   1.154  54.330  1.00  0.00     0.014 A 
ATOM      3  C   UNL     1      28.359   0.067  54.843  1.00  0.00     0.006 A 
ATOM      4  C   UNL     1      29.335  -0.572  54.096  1.00  0.00    -0.027 A 
ATOM      5  C   UNL     1      30.095  -1.761  54.665  1.00  0.00     0.046 C 
ATOM      6  C   UNL     1      29.570  -0.103  52.804  1.00  0.00     0.045 A 
ATOM      7  C   UNL     1      28.865   1.005  52.317  1.00  0.00     0.040 A 
ENDROOT
BRANCH   1   8
ATOM      8  C   UNL     1      27.176   2.756  52.401  1.00  0.00     0.255 C 
ATOM      9  O   UNL     1      27.475   2.969  51.251  1.00  0.00    -0.269 OA
ATOM     10  N   UNL     1      26.078   3.182  53.044  1.00  0.00    -0.322 N 
ATOM     11  H   UNL     1      25.901   2.787  53.978  1.00  0.00     0.170 HD
BRANCH  10  12
ATOM     12  C   UNL     1      25.159   4.107  52.564  1.00  0.00     0.044 A 
ATOM     13  C   UNL     1      24.236   4.734  53.437  1.00  0.00     0.052 A 
ATOM     14  C   UNL     1      25.044   4.352  51.179  1.00  0.00     0.039 A 
ATOM     15  C   UNL     1      23.315   5.673  52.966  1.00  0.00     0.049 A 
ATOM     16  C   UNL     1      24.119   5.326  50.703  1.00  0.00     0.060 A 
ATOM     17  C   UNL     1      23.248   5.943  51.603  1.00  0.00     0.039 A 
BRANCH  15  18
ATOM     18  N   UNL     1      22.425   6.331  53.828  1.00  0.00    -0.306 N 
ATOM     19  C   UNL     1      22.129   6.051  55.161  1.00  0.00     0.116 A 
ATOM     20  C   UNL     1      21.592   7.330  53.511  1.00  0.00     0.204 A 
ATOM     21  C   UNL     1      21.150   6.892  55.562  1.00  0.00     0.056 A 
ATOM     22  N   UNL     1      20.851   7.705  54.525  1.00  0.00    -0.242 NA
ATOM     23  C   UNL     1      20.508   6.988  56.925  1.00  0.00     0.068 C 
ENDBRANCH  15  18
BRANCH  16  24
ATOM     24  C   UNL     1      24.060   5.609  49.237  1.00  0.00     0.416 C 
ATOM     25  F   UNL     1      24.874   6.597  48.815  1.00  0.00    -0.166 F 
ATOM     26  F   UNL     1      24.498   4.572  48.533  1.00  0.00    -0.166 F 
ATOM     27  F   UNL     1      22.837   6.020  48.843  1.00  0.00    -0.166 F 
ENDBRANCH  16  24
ENDBRANCH  10  12
ENDBRANCH   1   8
BRANCH   6  28
ATOM     28  N   UNL     1      30.658  -0.625  52.093  1.00  0.00    -0.324 N 
ATOM     29  H   UNL     1      30.531  -1.434  51.470  1.00  0.00     0.170 HD
BRANCH  28  30
ATOM     30  C   UNL     1      31.917  -0.037  52.236  1.00  0.00     0.227 A 
ATOM     31  N   UNL     1      32.295   0.931  53.061  1.00  0.00    -0.221 NA
ATOM     32  N   UNL     1      32.734  -0.581  51.296  1.00  0.00    -0.213 NA
ATOM     33  C   UNL     1      33.572   1.346  52.961  1.00  0.00     0.117 A 
ATOM     34  C   UNL     1      33.985  -0.113  51.215  1.00  0.00     0.077 A 
ATOM     35  C   UNL     1      34.422   0.859  52.044  1.00  0.00     0.049 A 
BRANCH  34  36
ATOM     36  C   UNL     1      34.848  -0.764  50.195  1.00  0.00     0.019 A 
ATOM     37  C   UNL     1      36.179  -0.363  49.994  1.00  0.00     0.013 A 
ATOM     38  C   UNL     1      34.343  -1.800  49.386  1.00  0.00     0.121 A 
ATOM     39  C   UNL     1      36.931  -0.991  49.010  1.00  0.00     0.021 A 
ATOM     40  N   UNL     1      35.061  -2.403  48.430  1.00  0.00    -0.264 NA
ATOM     41  C   UNL     1      36.338  -2.018  48.277  1.00  0.00     0.111 A 
ENDBRANCH  34  36
ENDBRANCH  28  30
ENDBRANCH   6  28
TORSDOF 7
ENDMDL
MODEL 2
REMARK VINA RESULT:   -13.451      2.225      3.669
REMARK INTER + INTRA:         -16.760
REMARK INTER:                 -15.539
REMARK INTRA:                  -1.221
REMARK CONF_INDEPENDENT:        2.088
REMARK UNBOUND:                -1.221
REMARK SMILES Cc1cn(-c2cc(NC(=O)c3ccc(C)c(Nc4nccc(-c5cccnc5)n4)c3)cc(C(F)(F)F)c2)cn1
REMARK SMILES IDX 11 1 12 2 13 3 14 4 15 5 16 6 30 7 9 8 10 9 8 10 7 12 6 13
REMARK SMILES IDX 31 14 5 15 32 16 37 17 4 18 3 19 38 20 2 21 39 22 1 23 33 24
REMARK SMILES IDX 34 25 35 26 36 27 17 28 18 30 19 31 29 32 20 33 22 34 21 35
REMARK SMILES IDX 23 36 24 37 28 38 25 39 27 40 26 41
REMARK H PARENT 8 11 17 29
ROOT
ATOM      1  C   UNL     1      28.296   1.528  53.495  1.00  0.00     0.042 A 
ATOM      2  C   UNL     1      28.073   0.923  54.741  1.00  0.00     0.014 A 
ATOM      3  C   UNL     1      28.813  -0.185  55.154  1.00  0.00     0.006 A 
ATOM      4  C   UNL     1      29.741  -0.783  54.316  1.00  0.00    -0.027 A 
ATOM      5  C   UNL     1      30.536  -1.996  54.777  1.00  0.00     0.046 C 
ATOM      6  C   UNL     1      29.894  -0.249  53.037  1.00  0.00     0.045 A 
ATOM      7  C   UNL     1      29.159   0.879  52.651  1.00  0.00     0.040 A 
ENDROOT
BRANCH   1   8
ATOM      8  C   UNL     1      27.479   2.618  52.928  1.00  0.00     0.255 C 
ATOM      9  O   UNL     1      27.902   3.107  51.909  1.00  0.00    -0.269 OA
ATOM     10  N   UNL     1      26.253   2.772  53.451  1.00  0.00    -0.322 N 
ATOM     11  H   UNL     1      26.005   2.167  54.246  1.00  0.00     0.170 HD
BRANCH  10  12
ATOM     12  C   UNL     1      25.288   3.673  53.018  1.00  0.00     0.044 A 
ATOM     13  C   UNL     1      25.096   3.926  51.637  1.00  0.00     0.052 A 
ATOM     14  C   UNL     1      24.560   4.447  53.948  1.00  0.00     0.039 A 
ATOM     15  C   UNL     1      24.122   4.823  51.192  1.00  0.00     0.049 A 
ATOM     16  C   UNL     1      23.553   5.344  53.493  1.00  0.00     0.060 A 
ATOM     17  C   UNL     1      23.376   5.541  52.121  1.00  0.00     0.039 A 
BRANCH  15  18
ATOM     18  N   UNL     1      23.895   5.049  49.826  1.00  0.00    -0.306 N 
ATOM     19  C   UNL     1      23.879   6.255  49.129  1.00  0.00     0.116 A 
ATOM     20  C   UNL     1      23.551   4.136  48.910  1.00  0.00     0.204 A 
ATOM     21  C   UNL     1      23.534   5.998  47.848  1.00  0.00     0.056 A 
ATOM     22  N   UNL     1      23.365   4.663  47.724  1.00  0.00    -0.242 NA
ATOM     23  C   UNL     1      23.400   6.977  46.707  1.00  0.00     0.068 C 
ENDBRANCH  15  18
BRANCH  16  24
ATOM     24  C   UNL     1      22.756   6.107  54.501  1.00  0.00     0.416 C 
ATOM     25  F   UNL     1      23.456   6.548  55.565  1.00  0.00    -0.166 F 
ATOM     26  F   UNL     1      22.294   7.240  53.987  1.00  0.00    -0.166 F 
ATOM     27  F   UNL     1      21.781   5.358  55.057  1.00  0.00    -0.166 F 
ENDBRANCH  16  24
ENDBRANCH  10  12
ENDBRANCH   1   8
BRANCH   6  28
ATOM     28  N   UNL     1      30.935  -0.731  52.234  1.00  0.00    -0.324 N 
ATOM     29  H   UNL     1      30.768  -1.506  51.576  1.00  0.00     0.170 HD
BRANCH  28  30
ATOM     30  C   UNL     1      32.202  -0.153  52.332  1.00  0.00     0.227 A 
ATOM     31  N   UNL     1      32.615   0.816  53.140  1.00  0.00    -0.221 NA
ATOM     32  N   UNL     1      32.984  -0.707  51.370  1.00  0.00    -0.213 NA
ATOM     33  C   UNL     1      33.891   1.222  52.996  1.00  0.00     0.117 A 
ATOM     34  C   UNL     1      34.235  -0.249  51.245  1.00  0.00     0.077 A 
ATOM     35  C   UNL     1      34.707   0.724  52.054  1.00  0.00     0.049 A 
BRANCH  34  36
ATOM     36  C   UNL     1      35.060  -0.912  50.201  1.00  0.00     0.019 A 
ATOM     37  C   UNL     1      36.275  -0.361  49.765  1.00  0.00     0.013 A 
ATOM     38  C   UNL     1      34.631  -2.114  49.607  1.00  0.00     0.121 A 
ATOM     39  C   UNL     1      36.992  -1.011  48.768  1.00  0.00     0.021 A 
ATOM     40  N   UNL     1      35.313  -2.742  48.640  1.00  0.00    -0.264 NA
ATOM     41  C   UNL     1      36.485  -2.206  48.260  1.00  0.00     0.111 A 
ENDBRANCH  34  36
ENDBRANCH  28  30
ENDBRANCH   6  28
TORSDOF 7
ENDMDL
MODEL 3
REMARK VINA RESULT:   -11.365      4.037     11.243
REMARK INTER + INTRA:         -14.606
REMARK INTER:                 -13.453
REMARK INTRA:                  -1.154
REMARK CONF_INDEPENDENT:        2.088
REMARK UNBOUND:                -1.154
REMARK SMILES Cc1cn(-c2cc(NC(=O)c3ccc(C)c(Nc4nccc(-c5cccnc5)n4)c3)cc(C(F)(F)F)c2)cn1
REMARK SMILES IDX 11 1 12 2 13 3 14 4 15 5 16 6 30 7 9 8 10 9 8 10 7 12 6 13
REMARK SMILES IDX 31 14 5 15 32 16 37 17 4 18 3 19 38 20 2 21 39 22 1 23 33 24
REMARK SMILES IDX 34 25 35 26 36 27 17 28 18 30 19 31 29 32 20 33 22 34 21 35
REMARK SMILES IDX 23 36 24 37 28 38 25 39 27 40 26 41
REMARK H PARENT 8 11 17 29
ROOT
ATOM      1  C   UNL     1      25.823   3.882  51.936  1.00  0.00     0.042 A 
ATOM      2  C   UNL     1      25.274   4.424  50.765  1.00  0.00     0.014 A 
ATOM      3  C   UNL     1      24.158   5.262  50.804  1.00  0.00     0.006 A 
ATOM      4  C   UNL     1      23.498   5.523  51.994  1.00  0.00    -0.027 A 
ATOM      5  C   UNL     1      22.278   6.432  52.022  1.00  0.00     0.046 C 
ATOM      6  C   UNL     1      23.976   4.904  53.148  1.00  0.00     0.045 A 
ATOM      7  C   UNL     1      25.113   4.087  53.091  1.00  0.00     0.040 A 
ENDROOT
BRANCH   1   8
ATOM      8  C   UNL     1      26.917   2.892  51.976  1.00  0.00     0.255 C 
ATOM      9  O   UNL     1      27.610   2.846  50.989  1.00  0.00    -0.269 OA
ATOM     10  N   UNL     1      27.175   2.343  53.172  1.00  0.00    -0.322 N 
ATOM     11  H   UNL     1      26.552   2.602  53.950  1.00  0.00     0.170 HD
BRANCH  10  12
ATOM     12  C   UNL     1      28.206   1.456  53.457  1.00  0.00     0.044 A 
ATOM     13  C   UNL     1      29.513   1.676  52.958  1.00  0.00     0.052 A 
ATOM     14  C   UNL     1      27.947   0.253  54.150  1.00  0.00     0.039 A 
ATOM     15  C   UNL     1      30.559   0.795  53.248  1.00  0.00     0.049 A 
ATOM     16  C   UNL     1      29.017  -0.632  54.463  1.00  0.00     0.060 A 
ATOM     17  C   UNL     1      30.298  -0.361  53.977  1.00  0.00     0.039 A 
BRANCH  15  18
ATOM     18  N   UNL     1      31.866   1.026  52.794  1.00  0.00    -0.306 N 
ATOM     19  C   UNL     1      32.504   0.514  51.666  1.00  0.00     0.116 A 
ATOM     20  C   UNL     1      32.818   1.731  53.417  1.00  0.00     0.204 A 
ATOM     21  C   UNL     1      33.786   0.941  51.676  1.00  0.00     0.056 A 
ATOM     22  N   UNL     1      33.953   1.728  52.762  1.00  0.00    -0.242 NA
ATOM     23  C   UNL     1      34.865   0.667  50.656  1.00  0.00     0.068 C 
ENDBRANCH  15  18
BRANCH  16  24
ATOM     24  C   UNL     1      28.725  -1.868  55.250  1.00  0.00     0.416 C 
ATOM     25  F   UNL     1      28.272  -1.654  56.501  1.00  0.00    -0.166 F 
ATOM     26  F   UNL     1      27.723  -2.552  54.708  1.00  0.00    -0.166 F 
ATOM     27  F   UNL     1      29.824  -2.628  55.440  1.00  0.00    -0.166 F 
ENDBRANCH  16  24
ENDBRANCH  10  12
ENDBRANCH   1   8
BRANCH   6  28
ATOM     28  N   UNL     1      23.429   5.279  54.382  1.00  0.00    -0.324 N 
ATOM     29  H   UNL     1      22.755   4.664  54.859  1.00  0.00     0.170 HD
BRANCH  28  30
ATOM     30  C   UNL     1      23.805   6.494  54.959  1.00  0.00     0.227 A 
ATOM     31  N   UNL     1      23.731   7.716  54.448  1.00  0.00    -0.221 NA
ATOM     32  N   UNL     1      24.364   6.221  56.166  1.00  0.00    -0.213 NA
ATOM     33  C   UNL     1      24.208   8.720  55.208  1.00  0.00     0.117 A 
ATOM     34  C   UNL     1      24.854   7.247  56.871  1.00  0.00     0.077 A 
ATOM     35  C   UNL     1      24.786   8.512  56.402  1.00  0.00     0.049 A 
BRANCH  34  36
ATOM     36  C   UNL     1      25.423   6.900  58.199  1.00  0.00     0.019 A 
ATOM     37  C   UNL     1      24.629   6.879  59.357  1.00  0.00     0.013 A 
ATOM     38  C   UNL     1      26.792   6.596  58.334  1.00  0.00     0.121 A 
ATOM     39  C   UNL     1      25.221   6.573  60.576  1.00  0.00     0.021 A 
ATOM     40  N   UNL     1      27.369   6.308  59.507  1.00  0.00    -0.264 NA
ATOM     41  C   UNL     1      26.582   6.269  60.594  1.00  0.00     0.111 A 
ENDBRANCH  34  36
ENDBRANCH  28  30
ENDBRANCH   6  28
TORSDOF 7
ENDMDL
MODEL 4
REMARK VINA RESULT:   -11.086      3.877     11.680
REMARK INTER + INTRA:         -14.271
REMARK INTER:                 -13.174
REMARK INTRA:                  -1.097
REMARK CONF_INDEPENDENT:        2.088
REMARK UNBOUND:                -1.097
REMARK SMILES Cc1cn(-c2cc(NC(=O)c3ccc(C)c(Nc4nccc(-c5cccnc5)n4)c3)cc(C(F)(F)F)c2)cn1
REMARK SMILES IDX 11 1 12 2 13 3 14 4 15 5 16 6 30 7 9 8 10 9 8 10 7 12 6 13
REMARK SMILES IDX 31 14 5 15 32 16 37 17 4 18 3 19 38 20 2 21 39 22 1 23 33 24
REMARK SMILES IDX 34 25 35 26 36 27 17 28 18 30 19 31 29 32 20 33 22 34 21 35
REMARK SMILES IDX 23 36 24 37 28 38 25 39 27 40 26 41
REMARK H PARENT 8 11 17 29
ROOT
ATOM      1  C   UNL     1      25.766   3.457  51.839  1.00  0.00     0.042 A 
ATOM      2  C   UNL     1      24.893   3.223  50.766  1.00  0.00     0.014 A 
ATOM      3  C   UNL     1      23.554   3.616  50.818  1.00  0.00     0.006 A 
ATOM      4  C   UNL     1      23.015   4.177  51.965  1.00  0.00    -0.027 A 
ATOM      5  C   UNL     1      21.552   4.594  52.010  1.00  0.00     0.046 C 
ATOM      6  C   UNL     1      23.852   4.318  53.071  1.00  0.00     0.045 A 
ATOM      7  C   UNL     1      25.198   3.940  52.989  1.00  0.00     0.040 A 
ENDROOT
BRANCH   1   8
ATOM      8  C   UNL     1      27.155   2.965  51.919  1.00  0.00     0.255 C 
ATOM      9  O   UNL     1      27.730   2.861  50.863  1.00  0.00    -0.269 OA
ATOM     10  N   UNL     1      27.701   2.930  53.144  1.00  0.00    -0.322 N 
ATOM     11  H   UNL     1      27.091   3.183  53.934  1.00  0.00     0.170 HD
BRANCH  10  12
ATOM     12  C   UNL     1      29.012   2.582  53.443  1.00  0.00     0.044 A 
ATOM     13  C   UNL     1      29.709   1.630  52.660  1.00  0.00     0.052 A 
ATOM     14  C   UNL     1      29.639   3.081  54.606  1.00  0.00     0.039 A 
ATOM     15  C   UNL     1      31.032   1.281  52.947  1.00  0.00     0.049 A 
ATOM     16  C   UNL     1      30.994   2.742  54.885  1.00  0.00     0.060 A 
ATOM     17  C   UNL     1      31.654   1.821  54.068  1.00  0.00     0.039 A 
BRANCH  15  18
ATOM     18  N   UNL     1      31.744   0.371  52.152  1.00  0.00    -0.306 N 
ATOM     19  C   UNL     1      31.342  -0.273  50.984  1.00  0.00     0.116 A 
ATOM     20  C   UNL     1      32.951  -0.146  52.412  1.00  0.00     0.204 A 
ATOM     21  C   UNL     1      32.323  -1.125  50.613  1.00  0.00     0.056 A 
ATOM     22  N   UNL     1      33.334  -1.007  51.501  1.00  0.00    -0.242 NA
ATOM     23  C   UNL     1      32.360  -2.029  49.404  1.00  0.00     0.068 C 
ENDBRANCH  15  18
BRANCH  16  24
ATOM     24  C   UNL     1      31.652   3.331  56.090  1.00  0.00     0.416 C 
ATOM     25  F   UNL     1      31.016   4.393  56.624  1.00  0.00    -0.166 F 
ATOM     26  F   UNL     1      31.650   2.472  57.103  1.00  0.00    -0.166 F 
ATOM     27  F   UNL     1      32.885   3.807  55.820  1.00  0.00    -0.166 F 
ENDBRANCH  16  24
ENDBRANCH  10  12
ENDBRANCH   1   8
BRANCH   6  28
ATOM     28  N   UNL     1      23.376   5.028  54.180  1.00  0.00    -0.324 N 
ATOM     29  H   UNL     1      22.392   4.940  54.471  1.00  0.00     0.170 HD
BRANCH  28  30
ATOM     30  C   UNL     1      24.248   5.858  54.889  1.00  0.00     0.227 A 
ATOM     31  N   UNL     1      25.504   6.179  54.609  1.00  0.00    -0.221 NA
ATOM     32  N   UNL     1      23.610   6.253  56.021  1.00  0.00    -0.213 NA
ATOM     33  C   UNL     1      26.138   6.972  55.494  1.00  0.00     0.117 A 
ATOM     34  C   UNL     1      24.291   7.014  56.886  1.00  0.00     0.077 A 
ATOM     35  C   UNL     1      25.566   7.382  56.637  1.00  0.00     0.049 A 
BRANCH  34  36
ATOM     36  C   UNL     1      23.538   7.449  58.091  1.00  0.00     0.019 A 
ATOM     37  C   UNL     1      24.190   7.996  59.208  1.00  0.00     0.013 A 
ATOM     38  C   UNL     1      22.138   7.309  58.148  1.00  0.00     0.121 A 
ATOM     39  C   UNL     1      23.437   8.362  60.316  1.00  0.00     0.021 A 
ATOM     40  N   UNL     1      21.407   7.652  59.217  1.00  0.00    -0.264 NA
ATOM     41  C   UNL     1      22.053   8.196  60.261  1.00  0.00     0.111 A 
ENDBRANCH  34  36
ENDBRANCH  28  30
ENDBRANCH   6  28
TORSDOF 7
ENDMDL
MODEL 5
REMARK VINA RESULT:   -11.074      3.713     11.830
REMARK INTER + INTRA:         -14.273
REMARK INTER:                 -13.162
REMARK INTRA:                  -1.111
REMARK CONF_INDEPENDENT:        2.088
REMARK UNBOUND:                -1.111
REMARK SMILES Cc1cn(-c2cc(NC(=O)c3ccc(C)c(Nc4nccc(-c5cccnc5)n4)c3)cc(C(F)(F)F)c2)cn1
REMARK SMILES IDX 11 1 12 2 13 3 14 4 15 5 16 6 30 7 9 8 10 9 8 10 7 12 6 13
REMARK SMILES IDX 31 14 5 15 32 16 37 17 4 18 3 19 38 20 2 21 39 22 1 23 33 24
REMARK SMILES IDX 34 25 35 26 36 27 17 28 18 30 19 31 29 32 20 33 22 34 21 35
REMARK SMILES IDX 23 36 24 37 28 38 25 39 27 40 26 41
REMARK H PARENT 8 11 17 29
ROOT
ATOM      1  C   UNL     1      26.126   3.566  51.751  1.00  0.00     0.042 A 
ATOM      2  C   UNL     1      25.416   3.832  50.571  1.00  0.00     0.014 A 
ATOM      3  C   UNL     1      24.184   4.486  50.596  1.00  0.00     0.006 A 
ATOM      4  C   UNL     1      23.574   4.824  51.793  1.00  0.00    -0.027 A 
ATOM      5  C   UNL     1      22.226   5.531  51.806  1.00  0.00     0.046 C 
ATOM      6  C   UNL     1      24.226   4.469  52.973  1.00  0.00     0.045 A 
ATOM      7  C   UNL     1      25.474   3.835  52.926  1.00  0.00     0.040 A 
ENDROOT
BRANCH   1   8
ATOM      8  C   UNL     1      27.368   2.771  51.827  1.00  0.00     0.255 C 
ATOM      9  O   UNL     1      28.283   3.173  51.151  1.00  0.00    -0.269 OA
ATOM     10  N   UNL     1      27.427   1.859  52.809  1.00  0.00    -0.322 N 
ATOM     11  H   UNL     1      26.583   1.738  53.387  1.00  0.00     0.170 HD
BRANCH  10  12
ATOM     12  C   UNL     1      28.522   1.062  53.117  1.00  0.00     0.044 A 
ATOM     13  C   UNL     1      29.812   1.374  52.620  1.00  0.00     0.052 A 
ATOM     14  C   UNL     1      28.354  -0.144  53.834  1.00  0.00     0.039 A 
ATOM     15  C   UNL     1      30.921   0.584  52.933  1.00  0.00     0.049 A 
ATOM     16  C   UNL     1      29.489  -0.935  54.170  1.00  0.00     0.060 A 
ATOM     17  C   UNL     1      30.748  -0.574  53.684  1.00  0.00     0.039 A 
BRANCH  15  18
ATOM     18  N   UNL     1      32.209   0.908  52.480  1.00  0.00    -0.306 N 
ATOM     19  C   UNL     1      32.872   0.466  51.336  1.00  0.00     0.116 A 
ATOM     20  C   UNL     1      33.119   1.654  53.118  1.00  0.00     0.204 A 
ATOM     21  C   UNL     1      34.124   0.972  51.352  1.00  0.00     0.056 A 
ATOM     22  N   UNL     1      34.249   1.738  52.459  1.00  0.00    -0.242 NA
ATOM     23  C   UNL     1      35.212   0.792  50.321  1.00  0.00     0.068 C 
ENDBRANCH  15  18
BRANCH  16  24
ATOM     24  C   UNL     1      29.290  -2.175  54.981  1.00  0.00     0.416 C 
ATOM     25  F   UNL     1      30.424  -2.779  55.386  1.00  0.00    -0.166 F 
ATOM     26  F   UNL     1      28.697  -1.899  56.136  1.00  0.00    -0.166 F 
ATOM     27  F   UNL     1      28.650  -3.141  54.291  1.00  0.00    -0.166 F 
ENDBRANCH  16  24
ENDBRANCH  10  12
ENDBRANCH   1   8
BRANCH   6  28
ATOM     28  N   UNL     1      23.712   4.942  54.187  1.00  0.00    -0.324 N 
ATOM     29  H   UNL     1      22.792   4.622  54.522  1.00  0.00     0.170 HD
BRANCH  28  30
ATOM     30  C   UNL     1      24.457   5.851  54.941  1.00  0.00     0.227 A 
ATOM     31  N   UNL     1      25.724   6.217  54.790  1.00  0.00    -0.221 NA
ATOM     32  N   UNL     1      23.673   6.277  55.965  1.00  0.00    -0.213 NA
ATOM     33  C   UNL     1      26.214   7.087  55.693  1.00  0.00     0.117 A 
ATOM     34  C   UNL     1      24.215   7.117  56.855  1.00  0.00     0.077 A 
ATOM     35  C   UNL     1      25.494   7.533  56.734  1.00  0.00     0.049 A 
BRANCH  34  36
ATOM     36  C   UNL     1      23.306   7.581  57.935  1.00  0.00     0.019 A 
ATOM     37  C   UNL     1      23.682   7.527  59.287  1.00  0.00     0.013 A 
ATOM     38  C   UNL     1      22.025   8.079  57.627  1.00  0.00     0.121 A 
ATOM     39  C   UNL     1      22.782   7.952  60.256  1.00  0.00     0.021 A 
ATOM     40  N   UNL     1      21.149   8.482  58.557  1.00  0.00    -0.264 NA
ATOM     41  C   UNL     1      21.545   8.444  59.840  1.00  0.00     0.111 A 
ENDBRANCH  34  36
ENDBRANCH  28  30
ENDBRANCH   6  28
TORSDOF 7
ENDMDL
MODEL 6
REMARK VINA RESULT:   -11.063      4.713      8.293
REMARK INTER + INTRA:         -14.146
REMARK INTER:                 -13.151
REMARK INTRA:                  -0.995
REMARK CONF_INDEPENDENT:        2.088
REMARK UNBOUND:                -0.995
REMARK SMILES Cc1cn(-c2cc(NC(=O)c3ccc(C)c(Nc4nccc(-c5cccnc5)n4)c3)cc(C(F)(F)F)c2)cn1
REMARK SMILES IDX 11 1 12 2 13 3 14 4 15 5 16 6 30 7 9 8 10 9 8 10 7 12 6 13
REMARK SMILES IDX 31 14 5 15 32 16 37 17 4 18 3 19 38 20 2 21 39 22 1 23 33 24
REMARK SMILES IDX 34 25 35 26 36 27 17 28 18 30 19 31 29 32 20 33 22 34 21 35
REMARK SMILES IDX 23 36 24 37 28 38 25 39 27 40 26 41
REMARK H PARENT 8 11 17 29
ROOT
ATOM      1  C   UNL     1      34.300  -0.680  50.724  1.00  0.00     0.042 A 
ATOM      2  C   UNL     1      34.408  -1.965  50.173  1.00  0.00     0.014 A 
ATOM      3  C   UNL     1      35.438  -2.293  49.289  1.00  0.00     0.006 A 
ATOM      4  C   UNL     1      36.345  -1.338  48.857  1.00  0.00    -0.027 A 
ATOM      5  C   UNL     1      37.458  -1.708  47.887  1.00  0.00     0.046 C 
ATOM      6  C   UNL     1      36.180  -0.034  49.321  1.00  0.00     0.045 A 
ATOM      7  C   UNL     1      35.155   0.269  50.227  1.00  0.00     0.040 A 
ENDROOT
BRANCH   1   8
ATOM      8  C   UNL     1      33.177  -0.213  51.562  1.00  0.00     0.255 C 
ATOM      9  O   UNL     1      33.254   0.930  51.942  1.00  0.00    -0.269 OA
ATOM     10  N   UNL     1      32.096  -1.006  51.598  1.00  0.00    -0.322 N 
ATOM     11  H   UNL     1      32.158  -1.904  51.097  1.00  0.00     0.170 HD
BRANCH  10  12
ATOM     12  C   UNL     1      30.901  -0.728  52.249  1.00  0.00     0.044 A 
ATOM     13  C   UNL     1      30.105   0.379  51.866  1.00  0.00     0.052 A 
ATOM     14  C   UNL     1      30.514  -1.471  53.386  1.00  0.00     0.039 A 
ATOM     15  C   UNL     1      28.896   0.661  52.509  1.00  0.00     0.049 A 
ATOM     16  C   UNL     1      29.271  -1.196  54.026  1.00  0.00     0.060 A 
ATOM     17  C   UNL     1      28.502  -0.112  53.596  1.00  0.00     0.039 A 
BRANCH  15  18
ATOM     18  N   UNL     1      28.080   1.730  52.110  1.00  0.00    -0.306 N 
ATOM     19  C   UNL     1      27.105   2.407  52.840  1.00  0.00     0.116 A 
ATOM     20  C   UNL     1      28.007   2.270  50.887  1.00  0.00     0.204 A 
ATOM     21  C   UNL     1      26.514   3.307  52.022  1.00  0.00     0.056 A 
ATOM     22  N   UNL     1      27.116   3.227  50.814  1.00  0.00    -0.242 NA
ATOM     23  C   UNL     1      25.416   4.286  52.358  1.00  0.00     0.068 C 
ENDBRANCH  15  18
BRANCH  16  24
ATOM     24  C   UNL     1      28.857  -2.036  55.190  1.00  0.00     0.416 C 
ATOM     25  F   UNL     1      28.305  -1.358  56.215  1.00  0.00    -0.166 F 
ATOM     26  F   UNL     1      27.880  -2.869  54.853  1.00  0.00    -0.166 F 
ATOM     27  F   UNL     1      29.902  -2.672  55.761  1.00  0.00    -0.166 F 
ENDBRANCH  16  24
ENDBRANCH  10  12
ENDBRANCH   1   8
BRANCH   6  28
ATOM     28  N   UNL     1      37.175   0.908  49.029  1.00  0.00    -0.324 N 
ATOM     29  H   UNL     1      36.920   1.839  48.670  1.00  0.00     0.170 HD
BRANCH  28  30
ATOM     30  C   UNL     1      38.516   0.574  49.230  1.00  0.00     0.227 A 
ATOM     31  N   UNL     1      39.061  -0.132  50.212  1.00  0.00    -0.221 NA
ATOM     32  N   UNL     1      39.241   1.180  48.254  1.00  0.00    -0.213 NA
ATOM     33  C   UNL     1      40.400  -0.269  50.189  1.00  0.00     0.117 A 
ATOM     34  C   UNL     1      40.571   1.042  48.291  1.00  0.00     0.077 A 
ATOM     35  C   UNL     1      41.171   0.317  49.260  1.00  0.00     0.049 A 
BRANCH  34  36
ATOM     36  C   UNL     1      41.316   1.693  47.182  1.00  0.00     0.019 A 
ATOM     37  C   UNL     1      40.650   2.275  46.092  1.00  0.00     0.013 A 
ATOM     38  C   UNL     1      42.724   1.730  47.190  1.00  0.00     0.121 A 
ATOM     39  C   UNL     1      41.399   2.848  45.071  1.00  0.00     0.021 A 
ATOM     40  N   UNL     1      43.452   2.273  46.206  1.00  0.00    -0.264 NA
ATOM     41  C   UNL     1      42.789   2.845  45.188  1.00  0.00     0.111 A 
ENDBRANCH  34  36
ENDBRANCH  28  30
ENDBRANCH   6  28
TORSDOF 7
ENDMDL
MODEL 7
REMARK VINA RESULT:   -10.935      3.732     11.783
REMARK INTER + INTRA:         -14.317
REMARK INTER:                 -13.024
REMARK INTRA:                  -1.293
REMARK CONF_INDEPENDENT:        2.088
REMARK UNBOUND:                -1.293
REMARK SMILES Cc1cn(-c2cc(NC(=O)c3ccc(C)c(Nc4nccc(-c5cccnc5)n4)c3)cc(C(F)(F)F)c2)cn1
REMARK SMILES IDX 11 1 12 2 13 3 14 4 15 5 16 6 30 7 9 8 10 9 8 10 7 12 6 13
REMARK SMILES IDX 31 14 5 15 32 16 37 17 4 18 3 19 38 20 2 21 39 22 1 23 33 24
REMARK SMILES IDX 34 25 35 26 36 27 17 28 18 30 19 31 29 32 20 33 22 34 21 35
REMARK SMILES IDX 23 36 24 37 28 38 25 39 27 40 26 41
REMARK H PARENT 8 11 17 29
ROOT
ATOM      1  C   UNL     1      26.056   3.492  51.817  1.00  0.00     0.042 A 
ATOM      2  C   UNL     1      25.371   3.894  50.661  1.00  0.00     0.014 A 
ATOM      3  C   UNL     1      24.178   4.615  50.736  1.00  0.00     0.006 A 
ATOM      4  C   UNL     1      23.580   4.890  51.955  1.00  0.00    -0.027 A 
ATOM      5  C   UNL     1      22.276   5.671  52.021  1.00  0.00     0.046 C 
ATOM      6  C   UNL     1      24.202   4.403  53.104  1.00  0.00     0.045 A 
ATOM      7  C   UNL     1      25.412   3.703  53.009  1.00  0.00     0.040 A 
ENDROOT
BRANCH   1   8
ATOM      8  C   UNL     1      27.248   2.622  51.832  1.00  0.00     0.255 C 
ATOM      9  O   UNL     1      28.030   2.799  50.929  1.00  0.00    -0.269 OA
ATOM     10  N   UNL     1      27.457   1.923  52.957  1.00  0.00    -0.322 N 
ATOM     11  H   UNL     1      26.739   1.995  53.692  1.00  0.00     0.170 HD
BRANCH  10  12
ATOM     12  C   UNL     1      28.552   1.110  53.222  1.00  0.00     0.044 A 
ATOM     13  C   UNL     1      29.834   1.427  52.708  1.00  0.00     0.052 A 
ATOM     14  C   UNL     1      28.389  -0.113  53.908  1.00  0.00     0.039 A 
ATOM     15  C   UNL     1      30.944   0.622  52.977  1.00  0.00     0.049 A 
ATOM     16  C   UNL     1      29.525  -0.921  54.200  1.00  0.00     0.060 A 
ATOM     17  C   UNL     1      30.777  -0.555  53.699  1.00  0.00     0.039 A 
BRANCH  15  18
ATOM     18  N   UNL     1      32.225   0.949  52.508  1.00  0.00    -0.306 N 
ATOM     19  C   UNL     1      32.872   0.514  51.353  1.00  0.00     0.116 A 
ATOM     20  C   UNL     1      33.142   1.693  53.136  1.00  0.00     0.204 A 
ATOM     21  C   UNL     1      34.124   1.021  51.354  1.00  0.00     0.056 A 
ATOM     22  N   UNL     1      34.262   1.782  52.462  1.00  0.00    -0.242 NA
ATOM     23  C   UNL     1      35.198   0.847  50.307  1.00  0.00     0.068 C 
ENDBRANCH  15  18
BRANCH  16  24
ATOM     24  C   UNL     1      29.332  -2.181  54.980  1.00  0.00     0.416 C 
ATOM     25  F   UNL     1      30.470  -2.780  55.386  1.00  0.00    -0.166 F 
ATOM     26  F   UNL     1      28.723  -1.939  56.135  1.00  0.00    -0.166 F 
ATOM     27  F   UNL     1      28.713  -3.140  54.262  1.00  0.00    -0.166 F 
ENDBRANCH  16  24
ENDBRANCH  10  12
ENDBRANCH   1   8
BRANCH   6  28
ATOM     28  N   UNL     1      23.707   4.805  54.351  1.00  0.00    -0.324 N 
ATOM     29  H   UNL     1      23.035   4.213  54.858  1.00  0.00     0.170 HD
BRANCH  28  30
ATOM     30  C   UNL     1      24.133   6.016  54.901  1.00  0.00     0.227 A 
ATOM     31  N   UNL     1      24.997   6.224  55.887  1.00  0.00    -0.221 NA
ATOM     32  N   UNL     1      23.436   7.011  54.295  1.00  0.00    -0.213 NA
ATOM     33  C   UNL     1      25.197   7.504  56.256  1.00  0.00     0.117 A 
ATOM     34  C   UNL     1      23.646   8.264  54.718  1.00  0.00     0.077 A 
ATOM     35  C   UNL     1      24.527   8.529  55.705  1.00  0.00     0.049 A 
BRANCH  34  36
ATOM     36  C   UNL     1      22.885   9.320  53.999  1.00  0.00     0.019 A 
ATOM     37  C   UNL     1      22.318   9.087  52.736  1.00  0.00     0.013 A 
ATOM     38  C   UNL     1      22.726  10.598  54.568  1.00  0.00     0.121 A 
ATOM     39  C   UNL     1      21.640  10.119  52.101  1.00  0.00     0.021 A 
ATOM     40  N   UNL     1      22.080  11.600  53.957  1.00  0.00    -0.264 NA
ATOM     41  C   UNL     1      21.525  11.342  52.761  1.00  0.00     0.111 A 
ENDBRANCH  34  36
ENDBRANCH  28  30
ENDBRANCH   6  28
TORSDOF 7
ENDMDL
MODEL 8
REMARK VINA RESULT:   -10.899      3.589     12.075
REMARK INTER + INTRA:         -14.311
REMARK INTER:                 -12.987
REMARK INTRA:                  -1.324
REMARK CONF_INDEPENDENT:        2.088
REMARK UNBOUND:                -1.324
REMARK SMILES Cc1cn(-c2cc(NC(=O)c3ccc(C)c(Nc4nccc(-c5cccnc5)n4)c3)cc(C(F)(F)F)c2)cn1
REMARK SMILES IDX 11 1 12 2 13 3 14 4 15 5 16 6 30 7 9 8 10 9 8 10 7 12 6 13
REMARK SMILES IDX 31 14 5 15 32 16 37 17 4 18 3 19 38 20 2 21 39 22 1 23 33 24
REMARK SMILES IDX 34 25 35 26 36 27 17 28 18 30 19 31 29 32 20 33 22 34 21 35
REMARK SMILES IDX 23 36 24 37 28 38 25 39 27 40 26 41
REMARK H PARENT 8 11 17 29
ROOT
ATOM      1  C   UNL     1      25.603   3.633  51.896  1.00  0.00     0.042 A 
ATOM      2  C   UNL     1      24.841   3.766  50.726  1.00  0.00     0.014 A 
ATOM      3  C   UNL     1      23.509   4.181  50.769  1.00  0.00     0.006 A 
ATOM      4  C   UNL     1      22.863   4.397  51.976  1.00  0.00    -0.027 A 
ATOM      5  C   UNL     1      21.408   4.842  52.008  1.00  0.00     0.046 C 
ATOM      6  C   UNL     1      23.585   4.166  53.146  1.00  0.00     0.045 A 
ATOM      7  C   UNL     1      24.928   3.774  53.080  1.00  0.00     0.040 A 
ENDROOT
BRANCH   1   8
ATOM      8  C   UNL     1      26.971   3.081  51.953  1.00  0.00     0.255 C 
ATOM      9  O   UNL     1      27.523   2.952  50.887  1.00  0.00    -0.269 OA
ATOM     10  N   UNL     1      27.536   3.023  53.168  1.00  0.00    -0.322 N 
ATOM     11  H   UNL     1      26.952   3.303  53.969  1.00  0.00     0.170 HD
BRANCH  10  12
ATOM     12  C   UNL     1      28.836   2.620  53.446  1.00  0.00     0.044 A 
ATOM     13  C   UNL     1      29.471   1.623  52.664  1.00  0.00     0.052 A 
ATOM     14  C   UNL     1      29.511   3.107  54.587  1.00  0.00     0.039 A 
ATOM     15  C   UNL     1      30.782   1.218  52.930  1.00  0.00     0.049 A 
ATOM     16  C   UNL     1      30.854   2.710  54.842  1.00  0.00     0.060 A 
ATOM     17  C   UNL     1      31.453   1.746  54.028  1.00  0.00     0.039 A 
BRANCH  15  18
ATOM     18  N   UNL     1      31.434   0.262  52.136  1.00  0.00    -0.306 N 
ATOM     19  C   UNL     1      32.782   0.184  51.790  1.00  0.00     0.116 A 
ATOM     20  C   UNL     1      30.863  -0.741  51.460  1.00  0.00     0.204 A 
ATOM     21  C   UNL     1      32.939  -0.854  50.939  1.00  0.00     0.056 A 
ATOM     22  N   UNL     1      31.733  -1.440  50.771  1.00  0.00    -0.242 NA
ATOM     23  C   UNL     1      34.216  -1.349  50.305  1.00  0.00     0.068 C 
ENDBRANCH  15  18
BRANCH  16  24
ATOM     24  C   UNL     1      31.565   3.288  56.023  1.00  0.00     0.416 C 
ATOM     25  F   UNL     1      31.650   2.472  57.092  1.00  0.00    -0.166 F 
ATOM     26  F   UNL     1      32.844   3.513  55.746  1.00  0.00    -0.166 F 
ATOM     27  F   UNL     1      30.944   4.381  56.511  1.00  0.00    -0.166 F 
ENDBRANCH  16  24
ENDBRANCH  10  12
ENDBRANCH   1   8
BRANCH   6  28
ATOM     28  N   UNL     1      23.008   4.531  54.368  1.00  0.00    -0.324 N 
ATOM     29  H   UNL     1      22.431   3.858  54.893  1.00  0.00     0.170 HD
BRANCH  28  30
ATOM     30  C   UNL     1      23.221   5.817  54.871  1.00  0.00     0.227 A 
ATOM     31  N   UNL     1      24.141   6.231  55.732  1.00  0.00    -0.221 NA
ATOM     32  N   UNL     1      22.241   6.619  54.380  1.00  0.00    -0.213 NA
ATOM     33  C   UNL     1      24.097   7.530  56.087  1.00  0.00     0.117 A 
ATOM     34  C   UNL     1      22.219   7.893  54.787  1.00  0.00     0.077 A 
ATOM     35  C   UNL     1      23.145   8.367  55.648  1.00  0.00     0.049 A 
BRANCH  34  36
ATOM     36  C   UNL     1      21.149   8.738  54.194  1.00  0.00     0.019 A 
ATOM     37  C   UNL     1      19.791   8.483  54.438  1.00  0.00     0.013 A 
ATOM     38  C   UNL     1      21.476   9.818  53.351  1.00  0.00     0.121 A 
ATOM     39  C   UNL     1      18.833   9.290  53.837  1.00  0.00     0.021 A 
ATOM     40  N   UNL     1      20.557  10.595  52.763  1.00  0.00    -0.264 NA
ATOM     41  C   UNL     1      19.266  10.344  53.034  1.00  0.00     0.111 A 
ENDBRANCH  34  36
ENDBRANCH  28  30
ENDBRANCH   6  28
TORSDOF 7
ENDMDL
MODEL 9
REMARK VINA RESULT:   -10.887      8.344     15.203
REMARK INTER + INTRA:         -14.285
REMARK INTER:                 -12.975
REMARK INTRA:                  -1.311
REMARK CONF_INDEPENDENT:        2.088
REMARK UNBOUND:                -1.311
REMARK SMILES Cc1cn(-c2cc(NC(=O)c3ccc(C)c(Nc4nccc(-c5cccnc5)n4)c3)cc(C(F)(F)F)c2)cn1
REMARK SMILES IDX 11 1 12 2 13 3 14 4 15 5 16 6 30 7 9 8 10 9 8 10 7 12 6 13
REMARK SMILES IDX 31 14 5 15 32 16 37 17 4 18 3 19 38 20 2 21 39 22 1 23 33 24
REMARK SMILES IDX 34 25 35 26 36 27 17 28 18 30 19 31 29 32 20 33 22 34 21 35
REMARK SMILES IDX 23 36 24 37 28 38 25 39 27 40 26 41
REMARK H PARENT 8 11 17 29
ROOT
ATOM      1  C   UNL     1      35.980  -1.697  49.293  1.00  0.00     0.042 A 
ATOM      2  C   UNL     1      35.183  -2.846  49.171  1.00  0.00     0.014 A 
ATOM      3  C   UNL     1      33.808  -2.804  49.404  1.00  0.00     0.006 A 
ATOM      4  C   UNL     1      33.189  -1.646  49.846  1.00  0.00    -0.027 A 
ATOM      5  C   UNL     1      31.689  -1.617  50.104  1.00  0.00     0.046 C 
ATOM      6  C   UNL     1      33.992  -0.529  50.069  1.00  0.00     0.045 A 
ATOM      7  C   UNL     1      35.367  -0.584  49.805  1.00  0.00     0.040 A 
ENDROOT
BRANCH   1   8
ATOM      8  C   UNL     1      37.453  -1.678  49.190  1.00  0.00     0.255 C 
ATOM      9  O   UNL     1      38.037  -1.322  50.184  1.00  0.00    -0.269 OA
ATOM     10  N   UNL     1      37.979  -2.286  48.116  1.00  0.00    -0.322 N 
ATOM     11  H   UNL     1      37.318  -2.658  47.419  1.00  0.00     0.170 HD
BRANCH  10  12
ATOM     12  C   UNL     1      39.333  -2.460  47.859  1.00  0.00     0.044 A 
ATOM     13  C   UNL     1      39.902  -2.028  46.636  1.00  0.00     0.052 A 
ATOM     14  C   UNL     1      40.148  -3.180  48.759  1.00  0.00     0.039 A 
ATOM     15  C   UNL     1      41.265  -2.190  46.372  1.00  0.00     0.049 A 
ATOM     16  C   UNL     1      41.541  -3.324  48.499  1.00  0.00     0.060 A 
ATOM     17  C   UNL     1      42.067  -2.856  47.293  1.00  0.00     0.039 A 
BRANCH  15  18
ATOM     18  N   UNL     1      41.846  -1.727  45.181  1.00  0.00    -0.306 N 
ATOM     19  C   UNL     1      42.150  -0.420  44.806  1.00  0.00     0.116 A 
ATOM     20  C   UNL     1      42.150  -2.457  44.102  1.00  0.00     0.204 A 
ATOM     21  C   UNL     1      42.618  -0.443  43.539  1.00  0.00     0.056 A 
ATOM     22  N   UNL     1      42.641  -1.730  43.128  1.00  0.00    -0.242 NA
ATOM     23  C   UNL     1      43.095   0.720  42.703  1.00  0.00     0.068 C 
ENDBRANCH  15  18
BRANCH  16  24
ATOM     24  C   UNL     1      42.392  -4.039  49.498  1.00  0.00     0.416 C 
ATOM     25  F   UNL     1      42.613  -5.341  49.230  1.00  0.00    -0.166 F 
ATOM     26  F   UNL     1      43.625  -3.547  49.513  1.00  0.00    -0.166 F 
ATOM     27  F   UNL     1      41.831  -4.062  50.725  1.00  0.00    -0.166 F 
ENDBRANCH  16  24
ENDBRANCH  10  12
ENDBRANCH   1   8
BRANCH   6  28
ATOM     28  N   UNL     1      33.370   0.693  50.357  1.00  0.00    -0.324 N 
ATOM     29  H   UNL     1      33.048   1.305  49.594  1.00  0.00     0.170 HD
BRANCH  28  30
ATOM     30  C   UNL     1      33.190   1.075  51.688  1.00  0.00     0.227 A 
ATOM     31  N   UNL     1      33.886   1.948  52.405  1.00  0.00    -0.221 NA
ATOM     32  N   UNL     1      32.184   0.320  52.201  1.00  0.00    -0.213 NA
ATOM     33  C   UNL     1      33.525   2.098  53.694  1.00  0.00     0.117 A 
ATOM     34  C   UNL     1      31.883   0.481  53.494  1.00  0.00     0.077 A 
ATOM     35  C   UNL     1      32.550   1.370  54.261  1.00  0.00     0.049 A 
BRANCH  34  36
ATOM     36  C   UNL     1      30.753  -0.342  53.998  1.00  0.00     0.019 A 
ATOM     37  C   UNL     1      29.675   0.233  54.689  1.00  0.00     0.013 A 
ATOM     38  C   UNL     1      30.742  -1.738  53.805  1.00  0.00     0.121 A 
ATOM     39  C   UNL     1      28.658  -0.589  55.159  1.00  0.00     0.021 A 
ATOM     40  N   UNL     1      29.769  -2.536  54.262  1.00  0.00    -0.264 NA
ATOM     41  C   UNL     1      28.738  -1.956  54.898  1.00  0.00     0.111 A 
ENDBRANCH  34  36
ENDBRANCH  28  30
ENDBRANCH   6  28
TORSDOF 7
ENDMDL
MODEL 10
REMARK VINA RESULT:   -10.885      4.587      7.544
REMARK INTER + INTRA:         -13.739
REMARK INTER:                 -12.974
REMARK INTRA:                  -0.766
REMARK CONF_INDEPENDENT:        2.088
REMARK UNBOUND:                -0.766
REMARK SMILES Cc1cn(-c2cc(NC(=O)c3ccc(C)c(Nc4nccc(-c5cccnc5)n4)c3)cc(C(F)(F)F)c2)cn1
REMARK SMILES IDX 11 1 12 2 13 3 14 4 15 5 16 6 30 7 9 8 10 9 8 10 7 12 6 13
REMARK SMILES IDX 31 14 5 15 32 16 37 17 4 18 3 19 38 20 2 21 39 22 1 23 33 24
REMARK SMILES IDX 34 25 35 26 36 27 17 28 18 30 19 31 29 32 20 33 22 34 21 35
REMARK SMILES IDX 23 36 24 37 28 38 25 39 27 40 26 41
REMARK H PARENT 8 11 17 29
ROOT
ATOM      1  C   UNL     1      23.095   5.950  52.759  1.00  0.00     0.042 A 
ATOM      2  C   UNL     1      22.870   5.744  51.389  1.00  0.00     0.014 A 
ATOM      3  C   UNL     1      23.492   4.702  50.699  1.00  0.00     0.006 A 
ATOM      4  C   UNL     1      24.419   3.882  51.320  1.00  0.00    -0.027 A 
ATOM      5  C   UNL     1      25.095   2.754  50.553  1.00  0.00     0.046 C 
ATOM      6  C   UNL     1      24.725   4.146  52.654  1.00  0.00     0.045 A 
ATOM      7  C   UNL     1      24.072   5.181  53.336  1.00  0.00     0.040 A 
ENDROOT
BRANCH   1   8
ATOM      8  C   UNL     1      22.583   7.097  53.534  1.00  0.00     0.255 C 
ATOM      9  O   UNL     1      23.404   7.928  53.835  1.00  0.00    -0.269 OA
ATOM     10  N   UNL     1      21.248   7.217  53.601  1.00  0.00    -0.322 N 
ATOM     11  H   UNL     1      20.689   6.470  53.165  1.00  0.00     0.170 HD
BRANCH  10  12
ATOM     12  C   UNL     1      20.552   8.257  54.203  1.00  0.00     0.044 A 
ATOM     13  C   UNL     1      19.516   8.934  53.512  1.00  0.00     0.052 A 
ATOM     14  C   UNL     1      20.941   8.743  55.470  1.00  0.00     0.039 A 
ATOM     15  C   UNL     1      18.803   9.975  54.113  1.00  0.00     0.049 A 
ATOM     16  C   UNL     1      20.199   9.789  56.089  1.00  0.00     0.060 A 
ATOM     17  C   UNL     1      19.165  10.409  55.384  1.00  0.00     0.039 A 
BRANCH  15  18
ATOM     18  N   UNL     1      17.748  10.624  53.454  1.00  0.00    -0.306 N 
ATOM     19  C   UNL     1      16.444  10.844  53.894  1.00  0.00     0.116 A 
ATOM     20  C   UNL     1      17.754  11.094  52.201  1.00  0.00     0.204 A 
ATOM     21  C   UNL     1      15.754  11.431  52.892  1.00  0.00     0.056 A 
ATOM     22  N   UNL     1      16.600  11.609  51.853  1.00  0.00    -0.242 NA
ATOM     23  C   UNL     1      14.312  11.880  52.895  1.00  0.00     0.068 C 
ENDBRANCH  15  18
BRANCH  16  24
ATOM     24  C   UNL     1      20.595  10.243  57.457  1.00  0.00     0.416 C 
ATOM     25  F   UNL     1      20.784   9.254  58.353  1.00  0.00    -0.166 F 
ATOM     26  F   UNL     1      21.787  10.828  57.438  1.00  0.00    -0.166 F 
ATOM     27  F   UNL     1      19.651  11.014  58.035  1.00  0.00    -0.166 F 
ENDBRANCH  16  24
ENDBRANCH  10  12
ENDBRANCH   1   8
BRANCH   6  28
ATOM     28  N   UNL     1      25.533   3.235  53.347  1.00  0.00    -0.324 N 
ATOM     29  H   UNL     1      25.210   2.825  54.234  1.00  0.00     0.170 HD
BRANCH  28  30
ATOM     30  C   UNL     1      26.780   2.887  52.823  1.00  0.00     0.227 A 
ATOM     31  N   UNL     1      27.485   3.495  51.877  1.00  0.00    -0.221 NA
ATOM     32  N   UNL     1      27.159   1.719  53.403  1.00  0.00    -0.213 NA
ATOM     33  C   UNL     1      28.649   2.918  51.525  1.00  0.00     0.117 A 
ATOM     34  C   UNL     1      28.308   1.168  52.998  1.00  0.00     0.077 A 
ATOM     35  C   UNL     1      29.070   1.757  52.051  1.00  0.00     0.049 A 
BRANCH  34  36
ATOM     36  C   UNL     1      28.695  -0.091  53.687  1.00  0.00     0.019 A 
ATOM     37  C   UNL     1      27.951  -0.598  54.765  1.00  0.00     0.013 A 
ATOM     38  C   UNL     1      29.840  -0.805  53.283  1.00  0.00     0.121 A 
ATOM     39  C   UNL     1      28.375  -1.765  55.388  1.00  0.00     0.021 A 
ATOM     40  N   UNL     1      30.258  -1.926  53.884  1.00  0.00    -0.264 NA
ATOM     41  C   UNL     1      29.513  -2.403  54.896  1.00  0.00     0.111 A 
ENDBRANCH  34  36
ENDBRANCH  28  30
ENDBRANCH   6  28
TORSDOF 7
ENDMDL
MODEL 11
REMARK VINA RESULT:   -10.771      4.743     13.551
REMARK INTER + INTRA:         -14.219
REMARK INTER:                 -12.859
REMARK INTRA:                  -1.360
REMARK CONF_INDEPENDENT:        2.088
REMARK UNBOUND:                -1.360
REMARK SMILES Cc1cn(-c2cc(NC(=O)c3ccc(C)c(Nc4nccc(-c5cccnc5)n4)c3)cc(C(F)(F)F)c2)cn1
REMARK SMILES IDX 11 1 12 2 13 3 14 4 15 5 16 6 30 7 9 8 10 9 8 10 7 12 6 13
REMARK SMILES IDX 31 14 5 15 32 16 37 17 4 18 3 19 38 20 2 21 39 22 1 23 33 24
REMARK SMILES IDX 34 25 35 26 36 27 17 28 18 30 19 31 29 32 20 33 22 34 21 35
REMARK SMILES IDX 23 36 24 37 28 38 25 39 27 40 26 41
REMARK H PARENT 8 11 17 29
ROOT
ATOM      1  C   UNL     1      21.042   7.309  54.273  1.00  0.00     0.042 A 
ATOM      2  C   UNL     1      20.896   7.446  55.662  1.00  0.00     0.014 A 
ATOM      3  C   UNL     1      20.167   8.499  56.215  1.00  0.00     0.006 A 
ATOM      4  C   UNL     1      19.629   9.497  55.419  1.00  0.00    -0.027 A 
ATOM      5  C   UNL     1      18.842  10.645  56.037  1.00  0.00     0.046 C 
ATOM      6  C   UNL     1      19.859   9.423  54.046  1.00  0.00     0.045 A 
ATOM      7  C   UNL     1      20.572   8.344  53.508  1.00  0.00     0.040 A 
ENDROOT
BRANCH   1   8
ATOM      8  C   UNL     1      21.897   6.304  53.610  1.00  0.00     0.255 C 
ATOM      9  O   UNL     1      21.835   5.189  54.067  1.00  0.00    -0.269 OA
ATOM     10  N   UNL     1      22.442   6.671  52.441  1.00  0.00    -0.322 N 
ATOM     11  H   UNL     1      22.279   7.639  52.132  1.00  0.00     0.170 HD
BRANCH  10  12
ATOM     12  C   UNL     1      23.208   5.863  51.609  1.00  0.00     0.044 A 
ATOM     13  C   UNL     1      24.277   5.092  52.128  1.00  0.00     0.052 A 
ATOM     14  C   UNL     1      23.015   5.887  50.210  1.00  0.00     0.039 A 
ATOM     15  C   UNL     1      25.047   4.269  51.300  1.00  0.00     0.049 A 
ATOM     16  C   UNL     1      23.786   5.031  49.372  1.00  0.00     0.060 A 
ATOM     17  C   UNL     1      24.811   4.263  49.929  1.00  0.00     0.039 A 
BRANCH  15  18
ATOM     18  N   UNL     1      26.080   3.469  51.811  1.00  0.00    -0.306 N 
ATOM     19  C   UNL     1      26.416   3.214  53.139  1.00  0.00     0.116 A 
ATOM     20  C   UNL     1      27.033   2.846  51.107  1.00  0.00     0.204 A 
ATOM     21  C   UNL     1      27.535   2.458  53.154  1.00  0.00     0.056 A 
ATOM     22  N   UNL     1      27.887   2.211  51.872  1.00  0.00    -0.242 NA
ATOM     23  C   UNL     1      28.271   1.912  54.353  1.00  0.00     0.068 C 
ENDBRANCH  15  18
BRANCH  16  24
ATOM     24  C   UNL     1      23.520   5.031  47.902  1.00  0.00     0.416 C 
ATOM     25  F   UNL     1      23.998   6.101  47.236  1.00  0.00    -0.166 F 
ATOM     26  F   UNL     1      24.152   4.029  47.302  1.00  0.00    -0.166 F 
ATOM     27  F   UNL     1      22.201   5.051  47.619  1.00  0.00    -0.166 F 
ENDBRANCH  16  24
ENDBRANCH  10  12
ENDBRANCH   1   8
BRANCH   6  28
ATOM     28  N   UNL     1      19.191  10.325  53.208  1.00  0.00    -0.324 N 
ATOM     29  H   UNL     1      19.724  10.930  52.567  1.00  0.00     0.170 HD
BRANCH  28  30
ATOM     30  C   UNL     1      17.797  10.398  53.249  1.00  0.00     0.227 A 
ATOM     31  N   UNL     1      17.018  11.470  53.202  1.00  0.00    -0.221 NA
ATOM     32  N   UNL     1      17.324   9.138  53.431  1.00  0.00    -0.213 NA
ATOM     33  C   UNL     1      15.692  11.260  53.305  1.00  0.00     0.117 A 
ATOM     34  C   UNL     1      16.002   8.983  53.561  1.00  0.00     0.077 A 
ATOM     35  C   UNL     1      15.165  10.041  53.502  1.00  0.00     0.049 A 
BRANCH  34  36
ATOM     36  C   UNL     1      15.532   7.582  53.724  1.00  0.00     0.019 A 
ATOM     37  C   UNL     1      14.779   7.184  54.840  1.00  0.00     0.013 A 
ATOM     38  C   UNL     1      15.847   6.605  52.759  1.00  0.00     0.121 A 
ATOM     39  C   UNL     1      14.389   5.855  54.951  1.00  0.00     0.021 A 
ATOM     40  N   UNL     1      15.481   5.322  52.865  1.00  0.00    -0.264 NA
ATOM     41  C   UNL     1      14.740   4.974  53.930  1.00  0.00     0.111 A 
ENDBRANCH  34  36
ENDBRANCH  28  30
ENDBRANCH   6  28
TORSDOF 7
ENDMDL
MODEL 12
REMARK VINA RESULT:   -10.763      4.176     11.113
REMARK INTER + INTRA:         -14.128
REMARK INTER:                 -12.851
REMARK INTRA:                  -1.277
REMARK CONF_INDEPENDENT:        2.088
REMARK UNBOUND:                -1.277
REMARK SMILES Cc1cn(-c2cc(NC(=O)c3ccc(C)c(Nc4nccc(-c5cccnc5)n4)c3)cc(C(F)(F)F)c2)cn1
REMARK SMILES IDX 11 1 12 2 13 3 14 4 15 5 16 6 30 7 9 8 10 9 8 10 7 12 6 13
REMARK SMILES IDX 31 14 5 15 32 16 37 17 4 18 3 19 38 20 2 21 39 22 1 23 33 24
REMARK SMILES IDX 34 25 35 26 36 27 17 28 18 30 19 31 29 32 20 33 22 34 21 35
REMARK SMILES IDX 23 36 24 37 28 38 25 39 27 40 26 41
REMARK H PARENT 8 11 17 29
ROOT
ATOM      1  C   UNL     1      25.576   3.763  51.910  1.00  0.00     0.042 A 
ATOM      2  C   UNL     1      24.736   3.742  50.786  1.00  0.00     0.014 A 
ATOM      3  C   UNL     1      23.407   4.162  50.864  1.00  0.00     0.006 A 
ATOM      4  C   UNL     1      22.842   4.539  52.072  1.00  0.00    -0.027 A 
ATOM      5  C   UNL     1      21.390   4.989  52.143  1.00  0.00     0.046 C 
ATOM      6  C   UNL     1      23.643   4.464  53.211  1.00  0.00     0.045 A 
ATOM      7  C   UNL     1      24.981   4.063  53.107  1.00  0.00     0.040 A 
ENDROOT
BRANCH   1   8
ATOM      8  C   UNL     1      26.948   3.221  51.947  1.00  0.00     0.255 C 
ATOM      9  O   UNL     1      27.519   3.182  50.885  1.00  0.00    -0.269 OA
ATOM     10  N   UNL     1      27.492   3.070  53.164  1.00  0.00    -0.322 N 
ATOM     11  H   UNL     1      26.891   3.280  53.974  1.00  0.00     0.170 HD
BRANCH  10  12
ATOM     12  C   UNL     1      28.791   2.657  53.432  1.00  0.00     0.044 A 
ATOM     13  C   UNL     1      29.413   1.657  52.645  1.00  0.00     0.052 A 
ATOM     14  C   UNL     1      29.477   3.138  54.569  1.00  0.00     0.039 A 
ATOM     15  C   UNL     1      30.723   1.243  52.900  1.00  0.00     0.049 A 
ATOM     16  C   UNL     1      30.819   2.730  54.815  1.00  0.00     0.060 A 
ATOM     17  C   UNL     1      31.405   1.764  53.995  1.00  0.00     0.039 A 
BRANCH  15  18
ATOM     18  N   UNL     1      31.363   0.284  52.100  1.00  0.00    -0.306 N 
ATOM     19  C   UNL     1      32.722  -0.004  51.997  1.00  0.00     0.116 A 
ATOM     20  C   UNL     1      30.790  -0.507  51.185  1.00  0.00     0.204 A 
ATOM     21  C   UNL     1      32.883  -0.943  51.039  1.00  0.00     0.056 A 
ATOM     22  N   UNL     1      31.660  -1.268  50.566  1.00  0.00    -0.242 NA
ATOM     23  C   UNL     1      34.168  -1.590  50.579  1.00  0.00     0.068 C 
ENDBRANCH  15  18
BRANCH  16  24
ATOM     24  C   UNL     1      31.542   3.301  55.992  1.00  0.00     0.416 C 
ATOM     25  F   UNL     1      31.650   2.473  57.050  1.00  0.00    -0.166 F 
ATOM     26  F   UNL     1      32.815   3.541  55.699  1.00  0.00    -0.166 F 
ATOM     27  F   UNL     1      30.918   4.382  56.503  1.00  0.00    -0.166 F 
ENDBRANCH  16  24
ENDBRANCH  10  12
ENDBRANCH   1   8
BRANCH   6  28
ATOM     28  N   UNL     1      23.147   4.992  54.410  1.00  0.00    -0.324 N 
ATOM     29  H   UNL     1      22.435   4.478  54.948  1.00  0.00     0.170 HD
BRANCH  28  30
ATOM     30  C   UNL     1      23.626   6.220  54.869  1.00  0.00     0.227 A 
ATOM     31  N   UNL     1      23.568   7.409  54.282  1.00  0.00    -0.221 NA
ATOM     32  N   UNL     1      24.267   5.998  56.046  1.00  0.00    -0.213 NA
ATOM     33  C   UNL     1      24.153   8.434  54.930  1.00  0.00     0.117 A 
ATOM     34  C   UNL     1      24.861   7.042  56.637  1.00  0.00     0.077 A 
ATOM     35  C   UNL     1      24.815   8.274  56.087  1.00  0.00     0.049 A 
BRANCH  34  36
ATOM     36  C   UNL     1      25.519   6.754  57.938  1.00  0.00     0.019 A 
ATOM     37  C   UNL     1      24.774   6.429  59.083  1.00  0.00     0.013 A 
ATOM     38  C   UNL     1      26.921   6.815  58.060  1.00  0.00     0.121 A 
ATOM     39  C   UNL     1      25.441   6.194  60.278  1.00  0.00     0.021 A 
ATOM     40  N   UNL     1      27.569   6.598  59.211  1.00  0.00    -0.264 NA
ATOM     41  C   UNL     1      26.834   6.264  60.284  1.00  0.00     0.111 A 
ENDBRANCH  34  36
ENDBRANCH  28  30
ENDBRANCH   6  28
TORSDOF 7
ENDMDL
MODEL 13
REMARK VINA RESULT:   -10.656      6.752     14.696
REMARK INTER + INTRA:         -13.684
REMARK INTER:                 -12.744
REMARK INTRA:                  -0.940
REMARK CONF_INDEPENDENT:        2.088
REMARK UNBOUND:                -0.940
REMARK SMILES Cc1cn(-c2cc(NC(=O)c3ccc(C)c(Nc4nccc(-c5cccnc5)n4)c3)cc(C(F)(F)F)c2)cn1
REMARK SMILES IDX 11 1 12 2 13 3 14 4 15 5 16 6 30 7 9 8 10 9 8 10 7 12 6 13
REMARK SMILES IDX 31 14 5 15 32 16 37 17 4 18 3 19 38 20 2 21 39 22 1 23 33 24
REMARK SMILES IDX 34 25 35 26 36 27 17 28 18 30 19 31 29 32 20 33 22 34 21 35
REMARK SMILES IDX 23 36 24 37 28 38 25 39 27 40 26 41
REMARK H PARENT 8 11 17 29
ROOT
ATOM      1  C   UNL     1      35.679  -1.124  49.675  1.00  0.00     0.042 A 
ATOM      2  C   UNL     1      34.894  -2.027  48.942  1.00  0.00     0.014 A 
ATOM      3  C   UNL     1      33.502  -2.030  49.046  1.00  0.00     0.006 A 
ATOM      4  C   UNL     1      32.847  -1.198  49.940  1.00  0.00    -0.027 A 
ATOM      5  C   UNL     1      31.328  -1.217  50.049  1.00  0.00     0.046 C 
ATOM      6  C   UNL     1      33.628  -0.372  50.746  1.00  0.00     0.045 A 
ATOM      7  C   UNL     1      35.022  -0.366  50.608  1.00  0.00     0.040 A 
ENDROOT
BRANCH   1   8
ATOM      8  C   UNL     1      37.155  -1.136  49.722  1.00  0.00     0.255 C 
ATOM      9  O   UNL     1      37.650  -0.493  50.615  1.00  0.00    -0.269 OA
ATOM     10  N   UNL     1      37.764  -2.042  48.943  1.00  0.00    -0.322 N 
ATOM     11  H   UNL     1      37.164  -2.610  48.328  1.00  0.00     0.170 HD
BRANCH  10  12
ATOM     12  C   UNL     1      39.131  -2.285  48.891  1.00  0.00     0.044 A 
ATOM     13  C   UNL     1      39.891  -2.425  50.078  1.00  0.00     0.052 A 
ATOM     14  C   UNL     1      39.814  -2.278  47.655  1.00  0.00     0.039 A 
ATOM     15  C   UNL     1      41.265  -2.680  50.035  1.00  0.00     0.049 A 
ATOM     16  C   UNL     1      41.210  -2.560  47.612  1.00  0.00     0.060 A 
ATOM     17  C   UNL     1      41.916  -2.722  48.807  1.00  0.00     0.039 A 
BRANCH  15  18
ATOM     18  N   UNL     1      42.018  -2.861  51.205  1.00  0.00    -0.306 N 
ATOM     19  C   UNL     1      41.954  -3.896  52.136  1.00  0.00     0.116 A 
ATOM     20  C   UNL     1      42.911  -2.010  51.723  1.00  0.00     0.204 A 
ATOM     21  C   UNL     1      42.806  -3.610  53.144  1.00  0.00     0.056 A 
ATOM     22  N   UNL     1      43.419  -2.442  52.851  1.00  0.00    -0.242 NA
ATOM     23  C   UNL     1      43.102  -4.436  54.373  1.00  0.00     0.068 C 
ENDBRANCH  15  18
BRANCH  16  24
ATOM     24  C   UNL     1      41.896  -2.606  46.286  1.00  0.00     0.416 C 
ATOM     25  F   UNL     1      41.194  -2.080  45.262  1.00  0.00    -0.166 F 
ATOM     26  F   UNL     1      42.988  -1.850  46.287  1.00  0.00    -0.166 F 
ATOM     27  F   UNL     1      42.144  -3.868  45.880  1.00  0.00    -0.166 F 
ENDBRANCH  16  24
ENDBRANCH  10  12
ENDBRANCH   1   8
BRANCH   6  28
ATOM     28  N   UNL     1      32.986   0.589  51.537  1.00  0.00    -0.324 N 
ATOM     29  H   UNL     1      33.247   1.583  51.461  1.00  0.00     0.170 HD
BRANCH  28  30
ATOM     30  C   UNL     1      31.989   0.190  52.430  1.00  0.00     0.227 A 
ATOM     31  N   UNL     1      32.025  -0.774  53.341  1.00  0.00    -0.221 NA
ATOM     32  N   UNL     1      30.879   0.926  52.163  1.00  0.00    -0.213 NA
ATOM     33  C   UNL     1      30.898  -0.982  54.047  1.00  0.00     0.117 A 
ATOM     34  C   UNL     1      29.774   0.661  52.869  1.00  0.00     0.077 A 
ATOM     35  C   UNL     1      29.765  -0.298  53.820  1.00  0.00     0.049 A 
BRANCH  34  36
ATOM     36  C   UNL     1      28.597   1.517  52.565  1.00  0.00     0.019 A 
ATOM     37  C   UNL     1      27.551   1.684  53.487  1.00  0.00     0.013 A 
ATOM     38  C   UNL     1      28.494   2.176  51.324  1.00  0.00     0.121 A 
ATOM     39  C   UNL     1      26.464   2.475  53.138  1.00  0.00     0.021 A 
ATOM     40  N   UNL     1      27.445   2.934  50.980  1.00  0.00    -0.264 NA
ATOM     41  C   UNL     1      26.471   3.097  51.890  1.00  0.00     0.111 A 
ENDBRANCH  34  36
ENDBRANCH  28  30
ENDBRANCH   6  28
TORSDOF 7
ENDMDL
MODEL 14
REMARK VINA RESULT:   -10.623      3.453     12.717
REMARK INTER + INTRA:         -13.657
REMARK INTER:                 -12.711
REMARK INTRA:                  -0.946
REMARK CONF_INDEPENDENT:        2.088
REMARK UNBOUND:                -0.946
REMARK SMILES Cc1cn(-c2cc(NC(=O)c3ccc(C)c(Nc4nccc(-c5cccnc5)n4)c3)cc(C(F)(F)F)c2)cn1
REMARK SMILES IDX 11 1 12 2 13 3 14 4 15 5 16 6 30 7 9 8 10 9 8 10 7 12 6 13
REMARK SMILES IDX 31 14 5 15 32 16 37 17 4 18 3 19 38 20 2 21 39 22 1 23 33 24
REMARK SMILES IDX 34 25 35 26 36 27 17 28 18 30 19 31 29 32 20 33 22 34 21 35
REMARK SMILES IDX 23 36 24 37 28 38 25 39 27 40 26 41
REMARK H PARENT 8 11 17 29
ROOT
ATOM      1  C   UNL     1      25.773   3.606  51.520  1.00  0.00     0.042 A 
ATOM      2  C   UNL     1      25.651   3.596  50.123  1.00  0.00     0.014 A 
ATOM      3  C   UNL     1      24.630   4.294  49.477  1.00  0.00     0.006 A 
ATOM      4  C   UNL     1      23.648   4.958  50.195  1.00  0.00    -0.027 A 
ATOM      5  C   UNL     1      22.535   5.709  49.478  1.00  0.00     0.046 C 
ATOM      6  C   UNL     1      23.705   4.886  51.586  1.00  0.00     0.045 A 
ATOM      7  C   UNL     1      24.752   4.200  52.215  1.00  0.00     0.040 A 
ENDROOT
BRANCH   1   8
ATOM      8  C   UNL     1      26.740   2.797  52.288  1.00  0.00     0.255 C 
ATOM      9  O   UNL     1      26.485   2.659  53.460  1.00  0.00    -0.269 OA
ATOM     10  N   UNL     1      27.638   2.108  51.569  1.00  0.00    -0.322 N 
ATOM     11  H   UNL     1      27.626   2.247  50.549  1.00  0.00     0.170 HD
BRANCH  10  12
ATOM     12  C   UNL     1      28.582   1.223  52.074  1.00  0.00     0.044 A 
ATOM     13  C   UNL     1      29.790   0.972  51.377  1.00  0.00     0.052 A 
ATOM     14  C   UNL     1      28.307   0.462  53.232  1.00  0.00     0.039 A 
ATOM     15  C   UNL     1      30.751   0.092  51.882  1.00  0.00     0.049 A 
ATOM     16  C   UNL     1      29.296  -0.418  53.757  1.00  0.00     0.060 A 
ATOM     17  C   UNL     1      30.486  -0.612  53.053  1.00  0.00     0.039 A 
BRANCH  15  18
ATOM     18  N   UNL     1      31.968  -0.131  51.221  1.00  0.00    -0.306 N 
ATOM     19  C   UNL     1      32.295  -1.125  50.300  1.00  0.00     0.116 A 
ATOM     20  C   UNL     1      33.117   0.526  51.415  1.00  0.00     0.204 A 
ATOM     21  C   UNL     1      33.605  -1.003  49.995  1.00  0.00     0.056 A 
ATOM     22  N   UNL     1      34.094   0.056  50.679  1.00  0.00    -0.242 NA
ATOM     23  C   UNL     1      34.416  -1.835  49.031  1.00  0.00     0.068 C 
ENDBRANCH  15  18
BRANCH  16  24
ATOM     24  C   UNL     1      29.001  -1.165  55.017  1.00  0.00     0.416 C 
ATOM     25  F   UNL     1      28.262  -2.281  54.857  1.00  0.00    -0.166 F 
ATOM     26  F   UNL     1      30.114  -1.647  55.557  1.00  0.00    -0.166 F 
ATOM     27  F   UNL     1      28.278  -0.433  55.890  1.00  0.00    -0.166 F 
ENDBRANCH  16  24
ENDBRANCH  10  12
ENDBRANCH   1   8
BRANCH   6  28
ATOM     28  N   UNL     1      22.823   5.679  52.332  1.00  0.00    -0.324 N 
ATOM     29  H   UNL     1      22.226   5.253  53.055  1.00  0.00     0.170 HD
BRANCH  28  30
ATOM     30  C   UNL     1      22.759   7.052  52.086  1.00  0.00     0.227 A 
ATOM     31  N   UNL     1      23.572   7.805  51.356  1.00  0.00    -0.221 NA
ATOM     32  N   UNL     1      21.725   7.552  52.809  1.00  0.00    -0.213 NA
ATOM     33  C   UNL     1      23.306   9.125  51.321  1.00  0.00     0.117 A 
ATOM     34  C   UNL     1      21.519   8.874  52.768  1.00  0.00     0.077 A 
ATOM     35  C   UNL     1      22.307   9.680  52.026  1.00  0.00     0.049 A 
BRANCH  34  36
ATOM     36  C   UNL     1      20.354   9.367  53.548  1.00  0.00     0.019 A 
ATOM     37  C   UNL     1      20.118   8.943  54.866  1.00  0.00     0.013 A 
ATOM     38  C   UNL     1      19.438  10.270  52.972  1.00  0.00     0.121 A 
ATOM     39  C   UNL     1      18.999   9.418  55.537  1.00  0.00     0.021 A 
ATOM     40  N   UNL     1      18.353  10.724  53.612  1.00  0.00    -0.264 NA
ATOM     41  C   UNL     1      18.166  10.323  54.880  1.00  0.00     0.111 A 
ENDBRANCH  34  36
ENDBRANCH  28  30
ENDBRANCH   6  28
TORSDOF 7
ENDMDL
MODEL 15
REMARK VINA RESULT:   -10.567      8.353     14.961
REMARK INTER + INTRA:         -14.005
REMARK INTER:                 -12.655
REMARK INTRA:                  -1.350
REMARK CONF_INDEPENDENT:        2.088
REMARK UNBOUND:                -1.350
REMARK SMILES Cc1cn(-c2cc(NC(=O)c3ccc(C)c(Nc4nccc(-c5cccnc5)n4)c3)cc(C(F)(F)F)c2)cn1
REMARK SMILES IDX 11 1 12 2 13 3 14 4 15 5 16 6 30 7 9 8 10 9 8 10 7 12 6 13
REMARK SMILES IDX 31 14 5 15 32 16 37 17 4 18 3 19 38 20 2 21 39 22 1 23 33 24
REMARK SMILES IDX 34 25 35 26 36 27 17 28 18 30 19 31 29 32 20 33 22 34 21 35
REMARK SMILES IDX 23 36 24 37 28 38 25 39 27 40 26 41
REMARK H PARENT 8 11 17 29
ROOT
ATOM      1  C   UNL     1      36.266  -1.595  49.627  1.00  0.00     0.042 A 
ATOM      2  C   UNL     1      35.542  -2.764  49.350  1.00  0.00     0.014 A 
ATOM      3  C   UNL     1      34.147  -2.782  49.386  1.00  0.00     0.006 A 
ATOM      4  C   UNL     1      33.424  -1.667  49.778  1.00  0.00    -0.027 A 
ATOM      5  C   UNL     1      31.903  -1.703  49.821  1.00  0.00     0.046 C 
ATOM      6  C   UNL     1      34.141  -0.532  50.155  1.00  0.00     0.045 A 
ATOM      7  C   UNL     1      35.540  -0.527  50.088  1.00  0.00     0.040 A 
ENDROOT
BRANCH   1   8
ATOM      8  C   UNL     1      37.736  -1.518  49.735  1.00  0.00     0.255 C 
ATOM      9  O   UNL     1      38.154  -0.818  50.625  1.00  0.00    -0.269 OA
ATOM     10  N   UNL     1      38.430  -2.412  49.015  1.00  0.00    -0.322 N 
ATOM     11  H   UNL     1      37.890  -3.033  48.396  1.00  0.00     0.170 HD
BRANCH  10  12
ATOM     12  C   UNL     1      39.809  -2.576  49.028  1.00  0.00     0.044 A 
ATOM     13  C   UNL     1      40.534  -2.543  50.245  1.00  0.00     0.052 A 
ATOM     14  C   UNL     1      40.534  -2.658  47.819  1.00  0.00     0.039 A 
ATOM     15  C   UNL     1      41.921  -2.716  50.269  1.00  0.00     0.049 A 
ATOM     16  C   UNL     1      41.943  -2.857  47.847  1.00  0.00     0.060 A 
ATOM     17  C   UNL     1      42.615  -2.848  49.071  1.00  0.00     0.039 A 
BRANCH  15  18
ATOM     18  N   UNL     1      42.642  -2.727  51.472  1.00  0.00    -0.306 N 
ATOM     19  C   UNL     1      42.678  -3.706  52.463  1.00  0.00     0.116 A 
ATOM     20  C   UNL     1      43.391  -1.734  51.966  1.00  0.00     0.204 A 
ATOM     21  C   UNL     1      43.441  -3.250  53.480  1.00  0.00     0.056 A 
ATOM     22  N   UNL     1      43.905  -2.028  53.136  1.00  0.00    -0.242 NA
ATOM     23  C   UNL     1      43.792  -3.956  54.768  1.00  0.00     0.068 C 
ENDBRANCH  15  18
BRANCH  16  24
ATOM     24  C   UNL     1      42.677  -3.002  46.553  1.00  0.00     0.416 C 
ATOM     25  F   UNL     1      43.821  -3.710  46.623  1.00  0.00    -0.166 F 
ATOM     26  F   UNL     1      41.969  -3.708  45.679  1.00  0.00    -0.166 F 
ATOM     27  F   UNL     1      43.075  -1.813  46.053  1.00  0.00    -0.166 F 
ENDBRANCH  16  24
ENDBRANCH  10  12
ENDBRANCH   1   8
BRANCH   6  28
ATOM     28  N   UNL     1      33.434   0.652  50.397  1.00  0.00    -0.324 N 
ATOM     29  H   UNL     1      33.080   1.216  49.612  1.00  0.00     0.170 HD
BRANCH  28  30
ATOM     30  C   UNL     1      33.214   1.064  51.713  1.00  0.00     0.227 A 
ATOM     31  N   UNL     1      33.877   1.966  52.426  1.00  0.00    -0.221 NA
ATOM     32  N   UNL     1      32.207   0.306  52.219  1.00  0.00    -0.213 NA
ATOM     33  C   UNL     1      33.481   2.141  53.701  1.00  0.00     0.117 A 
ATOM     34  C   UNL     1      31.870   0.494  53.500  1.00  0.00     0.077 A 
ATOM     35  C   UNL     1      32.503   1.412  54.261  1.00  0.00     0.049 A 
BRANCH  34  36
ATOM     36  C   UNL     1      30.740  -0.335  53.995  1.00  0.00     0.019 A 
ATOM     37  C   UNL     1      29.644   0.238  54.660  1.00  0.00     0.013 A 
ATOM     38  C   UNL     1      30.747  -1.732  53.820  1.00  0.00     0.121 A 
ATOM     39  C   UNL     1      28.628  -0.588  55.123  1.00  0.00     0.021 A 
ATOM     40  N   UNL     1      29.775  -2.535  54.271  1.00  0.00    -0.264 NA
ATOM     41  C   UNL     1      28.727  -1.958  54.881  1.00  0.00     0.111 A 
ENDBRANCH  34  36
ENDBRANCH  28  30
ENDBRANCH   6  28
TORSDOF 7
ENDMDL
MODEL 16
REMARK VINA RESULT:   -10.548      5.746     10.918
REMARK INTER + INTRA:         -13.775
REMARK INTER:                 -12.636
REMARK INTRA:                  -1.139
REMARK CONF_INDEPENDENT:        2.088
REMARK UNBOUND:                -1.139
REMARK SMILES Cc1cn(-c2cc(NC(=O)c3ccc(C)c(Nc4nccc(-c5cccnc5)n4)c3)cc(C(F)(F)F)c2)cn1
REMARK SMILES IDX 11 1 12 2 13 3 14 4 15 5 16 6 30 7 9 8 10 9 8 10 7 12 6 13
REMARK SMILES IDX 31 14 5 15 32 16 37 17 4 18 3 19 38 20 2 21 39 22 1 23 33 24
REMARK SMILES IDX 34 25 35 26 36 27 17 28 18 30 19 31 29 32 20 33 22 34 21 35
REMARK SMILES IDX 23 36 24 37 28 38 25 39 27 40 26 41
REMARK H PARENT 8 11 17 29
ROOT
ATOM      1  C   UNL     1      22.363   6.447  55.277  1.00  0.00     0.042 A 
ATOM      2  C   UNL     1      21.627   7.573  54.878  1.00  0.00     0.014 A 
ATOM      3  C   UNL     1      21.148   8.496  55.809  1.00  0.00     0.006 A 
ATOM      4  C   UNL     1      21.309   8.293  57.170  1.00  0.00    -0.027 A 
ATOM      5  C   UNL     1      20.775   9.304  58.174  1.00  0.00     0.046 C 
ATOM      6  C   UNL     1      21.949   7.123  57.577  1.00  0.00     0.045 A 
ATOM      7  C   UNL     1      22.444   6.222  56.627  1.00  0.00     0.040 A 
ENDROOT
BRANCH   1   8
ATOM      8  C   UNL     1      22.795   5.360  54.377  1.00  0.00     0.255 C 
ATOM      9  O   UNL     1      21.927   4.594  54.035  1.00  0.00    -0.269 OA
ATOM     10  N   UNL     1      24.020   5.484  53.845  1.00  0.00    -0.322 N 
ATOM     11  H   UNL     1      24.585   6.287  54.155  1.00  0.00     0.170 HD
BRANCH  10  12
ATOM     12  C   UNL     1      24.597   4.628  52.915  1.00  0.00     0.044 A 
ATOM     13  C   UNL     1      23.865   4.183  51.785  1.00  0.00     0.052 A 
ATOM     14  C   UNL     1      25.882   4.087  53.136  1.00  0.00     0.039 A 
ATOM     15  C   UNL     1      24.440   3.331  50.839  1.00  0.00     0.049 A 
ATOM     16  C   UNL     1      26.473   3.237  52.159  1.00  0.00     0.060 A 
ATOM     17  C   UNL     1      25.727   2.847  51.045  1.00  0.00     0.039 A 
BRANCH  15  18
ATOM     18  N   UNL     1      23.738   2.918  49.696  1.00  0.00    -0.306 N 
ATOM     19  C   UNL     1      22.922   1.802  49.525  1.00  0.00     0.116 A 
ATOM     20  C   UNL     1      23.786   3.477  48.481  1.00  0.00     0.204 A 
ATOM     21  C   UNL     1      22.528   1.760  48.233  1.00  0.00     0.056 A 
ATOM     22  N   UNL     1      23.053   2.835  47.605  1.00  0.00    -0.242 NA
ATOM     23  C   UNL     1      21.621   0.752  47.570  1.00  0.00     0.068 C 
ENDBRANCH  15  18
BRANCH  16  24
ATOM     24  C   UNL     1      27.859   2.727  52.391  1.00  0.00     0.416 C 
ATOM     25  F   UNL     1      27.954   1.392  52.556  1.00  0.00    -0.166 F 
ATOM     26  F   UNL     1      28.625   2.927  51.325  1.00  0.00    -0.166 F 
ATOM     27  F   UNL     1      28.406   3.222  53.520  1.00  0.00    -0.166 F 
ENDBRANCH  16  24
ENDBRANCH  10  12
ENDBRANCH   1   8
BRANCH   6  28
ATOM     28  N   UNL     1      22.267   6.975  58.934  1.00  0.00    -0.324 N 
ATOM     29  H   UNL     1      21.750   6.303  59.518  1.00  0.00     0.170 HD
BRANCH  28  30
ATOM     30  C   UNL     1      23.291   7.747  59.487  1.00  0.00     0.227 A 
ATOM     31  N   UNL     1      23.466   9.061  59.430  1.00  0.00    -0.221 NA
ATOM     32  N   UNL     1      24.179   6.898  60.066  1.00  0.00    -0.213 NA
ATOM     33  C   UNL     1      24.574   9.550  60.020  1.00  0.00     0.117 A 
ATOM     34  C   UNL     1      25.281   7.428  60.610  1.00  0.00     0.077 A 
ATOM     35  C   UNL     1      25.496   8.761  60.593  1.00  0.00     0.049 A 
BRANCH  34  36
ATOM     36  C   UNL     1      26.204   6.462  61.260  1.00  0.00     0.019 A 
ATOM     37  C   UNL     1      26.393   6.447  62.652  1.00  0.00     0.013 A 
ATOM     38  C   UNL     1      26.932   5.536  60.487  1.00  0.00     0.121 A 
ATOM     39  C   UNL     1      27.288   5.539  63.202  1.00  0.00     0.021 A 
ATOM     40  N   UNL     1      27.801   4.663  61.011  1.00  0.00    -0.264 NA
ATOM     41  C   UNL     1      27.944   4.654  62.347  1.00  0.00     0.111 A 
ENDBRANCH  34  36
ENDBRANCH  28  30
ENDBRANCH   6  28
TORSDOF 7
ENDMDL
MODEL 17
REMARK VINA RESULT:   -10.489      3.717     12.018
REMARK INTER + INTRA:         -13.700
REMARK INTER:                 -12.577
REMARK INTRA:                  -1.123
REMARK CONF_INDEPENDENT:        2.088
REMARK UNBOUND:                -1.123
REMARK SMILES Cc1cn(-c2cc(NC(=O)c3ccc(C)c(Nc4nccc(-c5cccnc5)n4)c3)cc(C(F)(F)F)c2)cn1
REMARK SMILES IDX 11 1 12 2 13 3 14 4 15 5 16 6 30 7 9 8 10 9 8 10 7 12 6 13
REMARK SMILES IDX 31 14 5 15 32 16 37 17 4 18 3 19 38 20 2 21 39 22 1 23 33 24
REMARK SMILES IDX 34 25 35 26 36 27 17 28 18 30 19 31 29 32 20 33 22 34 21 35
REMARK SMILES IDX 23 36 24 37 28 38 25 39 27 40 26 41
REMARK H PARENT 8 11 17 29
ROOT
ATOM      1  C   UNL     1      26.030   3.267  52.249  1.00  0.00     0.042 A 
ATOM      2  C   UNL     1      25.343   3.095  51.038  1.00  0.00     0.014 A 
ATOM      3  C   UNL     1      24.365   3.999  50.622  1.00  0.00     0.006 A 
ATOM      4  C   UNL     1      23.975   5.057  51.428  1.00  0.00    -0.027 A 
ATOM      5  C   UNL     1      22.902   6.032  50.965  1.00  0.00     0.046 C 
ATOM      6  C   UNL     1      24.581   5.174  52.678  1.00  0.00     0.045 A 
ATOM      7  C   UNL     1      25.579   4.271  53.066  1.00  0.00     0.040 A 
ENDROOT
BRANCH   1   8
ATOM      8  C   UNL     1      26.983   2.297  52.823  1.00  0.00     0.255 C 
ATOM      9  O   UNL     1      26.615   1.743  53.830  1.00  0.00    -0.269 OA
ATOM     10  N   UNL     1      28.021   1.955  52.045  1.00  0.00    -0.322 N 
ATOM     11  H   UNL     1      28.108   2.442  51.142  1.00  0.00     0.170 HD
BRANCH  10  12
ATOM     12  C   UNL     1      28.989   1.005  52.346  1.00  0.00     0.044 A 
ATOM     13  C   UNL     1      30.153   0.876  51.550  1.00  0.00     0.052 A 
ATOM     14  C   UNL     1      28.776   0.067  53.380  1.00  0.00     0.039 A 
ATOM     15  C   UNL     1      31.137  -0.070  51.850  1.00  0.00     0.049 A 
ATOM     16  C   UNL     1      29.789  -0.882  53.698  1.00  0.00     0.060 A 
ATOM     17  C   UNL     1      30.937  -0.955  52.905  1.00  0.00     0.039 A 
BRANCH  15  18
ATOM     18  N   UNL     1      32.313  -0.178  51.093  1.00  0.00    -0.306 N 
ATOM     19  C   UNL     1      32.665  -1.147  50.155  1.00  0.00     0.116 A 
ATOM     20  C   UNL     1      33.401   0.596  51.188  1.00  0.00     0.204 A 
ATOM     21  C   UNL     1      33.927  -0.897  49.743  1.00  0.00     0.056 A 
ATOM     22  N   UNL     1      34.358   0.217  50.377  1.00  0.00    -0.242 NA
ATOM     23  C   UNL     1      34.739  -1.656  48.722  1.00  0.00     0.068 C 
ENDBRANCH  15  18
BRANCH  16  24
ATOM     24  C   UNL     1      29.564  -1.824  54.836  1.00  0.00     0.416 C 
ATOM     25  F   UNL     1      29.030  -3.013  54.494  1.00  0.00    -0.166 F 
ATOM     26  F   UNL     1      30.714  -2.188  55.389  1.00  0.00    -0.166 F 
ATOM     27  F   UNL     1      28.689  -1.336  55.740  1.00  0.00    -0.166 F 
ENDBRANCH  16  24
ENDBRANCH  10  12
ENDBRANCH   1   8
BRANCH   6  28
ATOM     28  N   UNL     1      24.324   6.322  53.439  1.00  0.00    -0.324 N 
ATOM     29  H   UNL     1      24.910   7.162  53.326  1.00  0.00     0.170 HD
BRANCH  28  30
ATOM     30  C   UNL     1      23.267   6.319  54.351  1.00  0.00     0.227 A 
ATOM     31  N   UNL     1      21.972   6.143  54.124  1.00  0.00    -0.221 NA
ATOM     32  N   UNL     1      23.778   6.616  55.574  1.00  0.00    -0.213 NA
ATOM     33  C   UNL     1      21.153   6.232  55.189  1.00  0.00     0.117 A 
ATOM     34  C   UNL     1      22.921   6.726  56.595  1.00  0.00     0.077 A 
ATOM     35  C   UNL     1      21.595   6.538  56.418  1.00  0.00     0.049 A 
BRANCH  34  36
ATOM     36  C   UNL     1      23.532   7.018  57.918  1.00  0.00     0.019 A 
ATOM     37  C   UNL     1      24.906   6.839  58.149  1.00  0.00     0.013 A 
ATOM     38  C   UNL     1      22.738   7.473  58.989  1.00  0.00     0.121 A 
ATOM     39  C   UNL     1      25.418   7.104  59.413  1.00  0.00     0.021 A 
ATOM     40  N   UNL     1      23.224   7.722  60.212  1.00  0.00    -0.264 NA
ATOM     41  C   UNL     1      24.545   7.566  60.398  1.00  0.00     0.111 A 
ENDBRANCH  34  36
ENDBRANCH  28  30
ENDBRANCH   6  28
TORSDOF 7
ENDMDL
MODEL 18
REMARK VINA RESULT:   -10.399      3.810     12.088
REMARK INTER + INTRA:         -13.645
REMARK INTER:                 -12.487
REMARK INTRA:                  -1.158
REMARK CONF_INDEPENDENT:        2.088
REMARK UNBOUND:                -1.158
REMARK SMILES Cc1cn(-c2cc(NC(=O)c3ccc(C)c(Nc4nccc(-c5cccnc5)n4)c3)cc(C(F)(F)F)c2)cn1
REMARK SMILES IDX 11 1 12 2 13 3 14 4 15 5 16 6 30 7 9 8 10 9 8 10 7 12 6 13
REMARK SMILES IDX 31 14 5 15 32 16 37 17 4 18 3 19 38 20 2 21 39 22 1 23 33 24
REMARK SMILES IDX 34 25 35 26 36 27 17 28 18 30 19 31 29 32 20 33 22 34 21 35
REMARK SMILES IDX 23 36 24 37 28 38 25 39 27 40 26 41
REMARK H PARENT 8 11 17 29
ROOT
ATOM      1  C   UNL     1      26.776   3.237  52.024  1.00  0.00     0.042 A 
ATOM      2  C   UNL     1      26.305   3.222  50.703  1.00  0.00     0.014 A 
ATOM      3  C   UNL     1      25.122   3.870  50.345  1.00  0.00     0.006 A 
ATOM      4  C   UNL     1      24.323   4.484  51.297  1.00  0.00    -0.027 A 
ATOM      5  C   UNL     1      23.031   5.181  50.893  1.00  0.00     0.046 C 
ATOM      6  C   UNL     1      24.733   4.413  52.627  1.00  0.00     0.045 A 
ATOM      7  C   UNL     1      25.936   3.779  52.962  1.00  0.00     0.040 A 
ENDROOT
BRANCH   1   8
ATOM      8  C   UNL     1      27.942   2.476  52.513  1.00  0.00     0.255 C 
ATOM      9  O   UNL     1      28.250   2.680  53.662  1.00  0.00    -0.269 OA
ATOM     10  N   UNL     1      28.366   1.474  51.727  1.00  0.00    -0.322 N 
ATOM     11  H   UNL     1      27.892   1.358  50.821  1.00  0.00     0.170 HD
BRANCH  10  12
ATOM     12  C   UNL     1      29.387   0.581  52.025  1.00  0.00     0.044 A 
ATOM     13  C   UNL     1      30.276   0.131  51.017  1.00  0.00     0.052 A 
ATOM     14  C   UNL     1      29.487   0.007  53.311  1.00  0.00     0.039 A 
ATOM     15  C   UNL     1      31.313  -0.761  51.309  1.00  0.00     0.049 A 
ATOM     16  C   UNL     1      30.557  -0.884  53.611  1.00  0.00     0.060 A 
ATOM     17  C   UNL     1      31.430  -1.278  52.595  1.00  0.00     0.039 A 
BRANCH  15  18
ATOM     18  N   UNL     1      32.224  -1.179  50.327  1.00  0.00    -0.306 N 
ATOM     19  C   UNL     1      33.544  -0.779  50.131  1.00  0.00     0.116 A 
ATOM     20  C   UNL     1      31.975  -2.000  49.301  1.00  0.00     0.204 A 
ATOM     21  C   UNL     1      34.006  -1.381  49.013  1.00  0.00     0.056 A 
ATOM     22  N   UNL     1      33.019  -2.166  48.527  1.00  0.00    -0.242 NA
ATOM     23  C   UNL     1      35.382  -1.275  48.402  1.00  0.00     0.068 C 
ENDBRANCH  15  18
BRANCH  16  24
ATOM     24  C   UNL     1      30.674  -1.429  54.998  1.00  0.00     0.416 C 
ATOM     25  F   UNL     1      29.528  -1.911  55.519  1.00  0.00    -0.166 F 
ATOM     26  F   UNL     1      31.459  -2.500  55.025  1.00  0.00    -0.166 F 
ATOM     27  F   UNL     1      31.053  -0.489  55.888  1.00  0.00    -0.166 F 
ENDBRANCH  16  24
ENDBRANCH  10  12
ENDBRANCH   1   8
BRANCH   6  28
ATOM     28  N   UNL     1      24.031   5.161  53.581  1.00  0.00    -0.324 N 
ATOM     29  H   UNL     1      23.001   5.174  53.577  1.00  0.00     0.170 HD
BRANCH  28  30
ATOM     30  C   UNL     1      24.739   5.890  54.539  1.00  0.00     0.227 A 
ATOM     31  N   UNL     1      26.025   6.219  54.552  1.00  0.00    -0.221 NA
ATOM     32  N   UNL     1      23.887   6.167  55.559  1.00  0.00    -0.213 NA
ATOM     33  C   UNL     1      26.466   6.895  55.630  1.00  0.00     0.117 A 
ATOM     34  C   UNL     1      24.379   6.813  56.623  1.00  0.00     0.077 A 
ATOM     35  C   UNL     1      25.676   7.185  56.675  1.00  0.00     0.049 A 
BRANCH  34  36
ATOM     36  C   UNL     1      23.398   7.123  57.696  1.00  0.00     0.019 A 
ATOM     37  C   UNL     1      22.018   7.165  57.441  1.00  0.00     0.013 A 
ATOM     38  C   UNL     1      23.835   7.401  59.006  1.00  0.00     0.121 A 
ATOM     39  C   UNL     1      21.150   7.486  58.477  1.00  0.00     0.021 A 
ATOM     40  N   UNL     1      23.004   7.718  60.007  1.00  0.00    -0.264 NA
ATOM     41  C   UNL     1      21.688   7.726  59.741  1.00  0.00     0.111 A 
ENDBRANCH  34  36
ENDBRANCH  28  30
ENDBRANCH   6  28
TORSDOF 7
ENDMDL
MODEL 19
REMARK VINA RESULT:   -10.352      4.604      7.421
REMARK INTER + INTRA:         -13.643
REMARK INTER:                 -12.440
REMARK INTRA:                  -1.203
REMARK CONF_INDEPENDENT:        2.088
REMARK UNBOUND:                -1.203
REMARK SMILES Cc1cn(-c2cc(NC(=O)c3ccc(C)c(Nc4nccc(-c5cccnc5)n4)c3)cc(C(F)(F)F)c2)cn1
REMARK SMILES IDX 11 1 12 2 13 3 14 4 15 5 16 6 30 7 9 8 10 9 8 10 7 12 6 13
REMARK SMILES IDX 31 14 5 15 32 16 37 17 4 18 3 19 38 20 2 21 39 22 1 23 33 24
REMARK SMILES IDX 34 25 35 26 36 27 17 28 18 30 19 31 29 32 20 33 22 34 21 35
REMARK SMILES IDX 23 36 24 37 28 38 25 39 27 40 26 41
REMARK H PARENT 8 11 17 29
ROOT
ATOM      1  C   UNL     1      23.262   4.920  52.771  1.00  0.00     0.042 A 
ATOM      2  C   UNL     1      22.851   5.544  51.583  1.00  0.00     0.014 A 
ATOM      3  C   UNL     1      23.323   5.121  50.339  1.00  0.00     0.006 A 
ATOM      4  C   UNL     1      24.279   4.124  50.235  1.00  0.00    -0.027 A 
ATOM      5  C   UNL     1      24.790   3.678  48.872  1.00  0.00     0.046 C 
ATOM      6  C   UNL     1      24.768   3.571  51.417  1.00  0.00     0.045 A 
ATOM      7  C   UNL     1      24.264   3.992  52.654  1.00  0.00     0.040 A 
ENDROOT
BRANCH   1   8
ATOM      8  C   UNL     1      22.915   5.381  54.129  1.00  0.00     0.255 C 
ATOM      9  O   UNL     1      21.986   4.811  54.648  1.00  0.00    -0.269 OA
ATOM     10  N   UNL     1      23.805   6.187  54.726  1.00  0.00    -0.322 N 
ATOM     11  H   UNL     1      24.623   6.473  54.170  1.00  0.00     0.170 HD
BRANCH  10  12
ATOM     12  C   UNL     1      23.725   6.671  56.026  1.00  0.00     0.044 A 
ATOM     13  C   UNL     1      24.675   6.288  57.005  1.00  0.00     0.052 A 
ATOM     14  C   UNL     1      22.626   7.460  56.432  1.00  0.00     0.039 A 
ATOM     15  C   UNL     1      24.608   6.777  58.312  1.00  0.00     0.049 A 
ATOM     16  C   UNL     1      22.572   7.975  57.758  1.00  0.00     0.060 A 
ATOM     17  C   UNL     1      23.547   7.596  58.684  1.00  0.00     0.039 A 
BRANCH  15  18
ATOM     18  N   UNL     1      25.568   6.437  59.277  1.00  0.00    -0.306 N 
ATOM     19  C   UNL     1      25.376   5.954  60.570  1.00  0.00     0.116 A 
ATOM     20  C   UNL     1      26.893   6.599  59.181  1.00  0.00     0.204 A 
ATOM     21  C   UNL     1      26.585   5.850  61.165  1.00  0.00     0.056 A 
ATOM     22  N   UNL     1      27.523   6.227  60.269  1.00  0.00    -0.242 NA
ATOM     23  C   UNL     1      26.895   5.356  62.558  1.00  0.00     0.068 C 
ENDBRANCH  15  18
BRANCH  16  24
ATOM     24  C   UNL     1      21.428   8.857  58.143  1.00  0.00     0.416 C 
ATOM     25  F   UNL     1      21.394  10.051  57.519  1.00  0.00    -0.166 F 
ATOM     26  F   UNL     1      20.269   8.322  57.777  1.00  0.00    -0.166 F 
ATOM     27  F   UNL     1      21.453   9.187  59.451  1.00  0.00    -0.166 F 
ENDBRANCH  16  24
ENDBRANCH  10  12
ENDBRANCH   1   8
BRANCH   6  28
ATOM     28  N   UNL     1      25.611   2.455  51.333  1.00  0.00    -0.324 N 
ATOM     29  H   UNL     1      25.266   1.574  50.925  1.00  0.00     0.170 HD
BRANCH  28  30
ATOM     30  C   UNL     1      26.921   2.546  51.806  1.00  0.00     0.227 A 
ATOM     31  N   UNL     1      27.801   3.525  51.636  1.00  0.00    -0.221 NA
ATOM     32  N   UNL     1      27.212   1.382  52.441  1.00  0.00    -0.213 NA
ATOM     33  C   UNL     1      29.024   3.339  52.167  1.00  0.00     0.117 A 
ATOM     34  C   UNL     1      28.451   1.229  52.923  1.00  0.00     0.077 A 
ATOM     35  C   UNL     1      29.376   2.204  52.792  1.00  0.00     0.049 A 
BRANCH  34  36
ATOM     36  C   UNL     1      28.708  -0.047  53.640  1.00  0.00     0.019 A 
ATOM     37  C   UNL     1      27.900  -0.467  54.708  1.00  0.00     0.013 A 
ATOM     38  C   UNL     1      29.791  -0.869  53.270  1.00  0.00     0.121 A 
ATOM     39  C   UNL     1      28.203  -1.657  55.357  1.00  0.00     0.021 A 
ATOM     40  N   UNL     1      30.093  -2.013  53.896  1.00  0.00    -0.264 NA
ATOM     41  C   UNL     1      29.288  -2.404  54.898  1.00  0.00     0.111 A 
ENDBRANCH  34  36
ENDBRANCH  28  30
ENDBRANCH   6  28
TORSDOF 7
ENDMDL
MODEL 20
REMARK VINA RESULT:   -10.339      4.365     10.883
REMARK INTER + INTRA:         -13.635
REMARK INTER:                 -12.427
REMARK INTRA:                  -1.209
REMARK CONF_INDEPENDENT:        2.088
REMARK UNBOUND:                -1.209
REMARK SMILES Cc1cn(-c2cc(NC(=O)c3ccc(C)c(Nc4nccc(-c5cccnc5)n4)c3)cc(C(F)(F)F)c2)cn1
REMARK SMILES IDX 11 1 12 2 13 3 14 4 15 5 16 6 30 7 9 8 10 9 8 10 7 12 6 13
REMARK SMILES IDX 31 14 5 15 32 16 37 17 4 18 3 19 38 20 2 21 39 22 1 23 33 24
REMARK SMILES IDX 34 25 35 26 36 27 17 28 18 30 19 31 29 32 20 33 22 34 21 35
REMARK SMILES IDX 23 36 24 37 28 38 25 39 27 40 26 41
REMARK H PARENT 8 11 17 29
ROOT
ATOM      1  C   UNL     1      22.385   6.876  55.536  1.00  0.00     0.042 A 
ATOM      2  C   UNL     1      21.662   8.022  55.172  1.00  0.00     0.014 A 
ATOM      3  C   UNL     1      21.176   8.910  56.133  1.00  0.00     0.006 A 
ATOM      4  C   UNL     1      21.317   8.652  57.487  1.00  0.00    -0.027 A 
ATOM      5  C   UNL     1      20.775   9.626  58.523  1.00  0.00     0.046 C 
ATOM      6  C   UNL     1      21.944   7.463  57.855  1.00  0.00     0.045 A 
ATOM      7  C   UNL     1      22.447   6.597  56.876  1.00  0.00     0.040 A 
ENDROOT
BRANCH   1   8
ATOM      8  C   UNL     1      22.824   5.823  54.599  1.00  0.00     0.255 C 
ATOM      9  O   UNL     1      22.159   4.816  54.604  1.00  0.00    -0.269 OA
ATOM     10  N   UNL     1      23.735   6.187  53.684  1.00  0.00    -0.322 N 
ATOM     11  H   UNL     1      24.105   7.146  53.748  1.00  0.00     0.170 HD
BRANCH  10  12
ATOM     12  C   UNL     1      24.226   5.388  52.659  1.00  0.00     0.044 A 
ATOM     13  C   UNL     1      25.290   4.481  52.890  1.00  0.00     0.052 A 
ATOM     14  C   UNL     1      23.757   5.548  51.337  1.00  0.00     0.039 A 
ATOM     15  C   UNL     1      25.784   3.666  51.867  1.00  0.00     0.049 A 
ATOM     16  C   UNL     1      24.246   4.702  50.301  1.00  0.00     0.060 A 
ATOM     17  C   UNL     1      25.275   3.799  50.579  1.00  0.00     0.039 A 
BRANCH  15  18
ATOM     18  N   UNL     1      26.808   2.735  52.095  1.00  0.00    -0.306 N 
ATOM     19  C   UNL     1      27.044   1.951  53.223  1.00  0.00     0.116 A 
ATOM     20  C   UNL     1      27.845   2.472  51.291  1.00  0.00     0.204 A 
ATOM     21  C   UNL     1      28.193   1.268  53.029  1.00  0.00     0.056 A 
ATOM     22  N   UNL     1      28.662   1.583  51.801  1.00  0.00    -0.242 NA
ATOM     23  C   UNL     1      28.852   0.276  53.958  1.00  0.00     0.068 C 
ENDBRANCH  15  18
BRANCH  16  24
ATOM     24  C   UNL     1      23.689   4.852  48.923  1.00  0.00     0.416 C 
ATOM     25  F   UNL     1      22.573   5.604  48.838  1.00  0.00    -0.166 F 
ATOM     26  F   UNL     1      24.529   5.518  48.139  1.00  0.00    -0.166 F 
ATOM     27  F   UNL     1      23.312   3.672  48.390  1.00  0.00    -0.166 F 
ENDBRANCH  16  24
ENDBRANCH  10  12
ENDBRANCH   1   8
BRANCH   6  28
ATOM     28  N   UNL     1      22.242   7.258  59.209  1.00  0.00    -0.324 N 
ATOM     29  H   UNL     1      21.664   6.623  59.778  1.00  0.00     0.170 HD
BRANCH  28  30
ATOM     30  C   UNL     1      23.329   7.922  59.781  1.00  0.00     0.227 A 
ATOM     31  N   UNL     1      23.597   9.222  59.795  1.00  0.00    -0.221 NA
ATOM     32  N   UNL     1      24.167   6.981  60.287  1.00  0.00    -0.213 NA
ATOM     33  C   UNL     1      24.749   9.596  60.384  1.00  0.00     0.117 A 
ATOM     34  C   UNL     1      25.315   7.399  60.833  1.00  0.00     0.077 A 
ATOM     35  C   UNL     1      25.624   8.712  60.888  1.00  0.00     0.049 A 
BRANCH  34  36
ATOM     36  C   UNL     1      26.180   6.334  61.404  1.00  0.00     0.019 A 
ATOM     37  C   UNL     1      26.400   6.227  62.787  1.00  0.00     0.013 A 
ATOM     38  C   UNL     1      26.820   5.404  60.561  1.00  0.00     0.121 A 
ATOM     39  C   UNL     1      27.238   5.226  63.261  1.00  0.00     0.021 A 
ATOM     40  N   UNL     1      27.636   4.442  61.012  1.00  0.00    -0.264 NA
ATOM     41  C   UNL     1      27.808   4.347  62.340  1.00  0.00     0.111 A 
ENDBRANCH  34  36
ENDBRANCH  28  30
ENDBRANCH   6  28
TORSDOF 7
ENDMDL
