MODEL 1
REMARK VINA RESULT:   -14.411      0.000      0.000
REMARK INTER + INTRA:         -17.669
REMARK INTER:                 -16.499
REMARK INTRA:                  -1.171
REMARK CONF_INDEPENDENT:        2.088
REMARK UNBOUND:                -1.171
REMARK SMILES Cc1cn(-c2cc(NC(=O)c3ccc(C)c(Nc4nccc(-c5cccnc5)n4)c3)cc(C(F)(F)F)c2)cn1
REMARK SMILES IDX 11 1 12 2 13 3 14 4 15 5 16 6 30 7 9 8 10 9 8 10 7 12 6 13
REMARK SMILES IDX 31 14 5 15 32 16 37 17 4 18 3 19 38 20 2 21 39 22 1 23 33 24
REMARK SMILES IDX 34 25 35 26 36 27 17 28 18 30 19 31 29 32 20 33 22 34 21 35
REMARK SMILES IDX 23 36 24 37 28 38 25 39 27 40 26 41
REMARK H PARENT 8 11 17 29
ROOT
ATOM      1  C   UNL     1      27.969   1.775  53.056  1.00  0.00     0.042 A 
ATOM      2  C   UNL     1      27.692   1.242  54.323  1.00  0.00     0.014 A 
ATOM      3  C   UNL     1      28.417   0.163  54.833  1.00  0.00     0.006 A 
ATOM      4  C   UNL     1      29.383  -0.476  54.072  1.00  0.00    -0.027 A 
ATOM      5  C   UNL     1      30.160  -1.656  54.638  1.00  0.00     0.046 C 
ATOM      6  C   UNL     1      29.591  -0.017  52.773  1.00  0.00     0.045 A 
ATOM      7  C   UNL     1      28.870   1.083  52.290  1.00  0.00     0.040 A 
ENDROOT
BRANCH   1   8
ATOM      8  C   UNL     1      27.174   2.826  52.390  1.00  0.00     0.255 C 
ATOM      9  O   UNL     1      27.479   3.061  51.247  1.00  0.00    -0.269 OA
ATOM     10  N   UNL     1      26.060   3.217  53.027  1.00  0.00    -0.322 N 
ATOM     11  H   UNL     1      25.883   2.806  53.955  1.00  0.00     0.170 HD
BRANCH  10  12
ATOM     12  C   UNL     1      25.124   4.126  52.551  1.00  0.00     0.044 A 
ATOM     13  C   UNL     1      24.211   4.759  53.430  1.00  0.00     0.052 A 
ATOM     14  C   UNL     1      24.981   4.348  51.163  1.00  0.00     0.039 A 
ATOM     15  C   UNL     1      23.273   5.683  52.961  1.00  0.00     0.049 A 
ATOM     16  C   UNL     1      24.039   5.306  50.690  1.00  0.00     0.060 A 
ATOM     17  C   UNL     1      23.178   5.930  51.596  1.00  0.00     0.039 A 
BRANCH  15  18
ATOM     18  N   UNL     1      22.393   6.347  53.830  1.00  0.00    -0.306 N 
ATOM     19  C   UNL     1      22.119   6.081  55.170  1.00  0.00     0.116 A 
ATOM     20  C   UNL     1      21.550   7.337  53.513  1.00  0.00     0.204 A 
ATOM     21  C   UNL     1      21.142   6.921  55.576  1.00  0.00     0.056 A 
ATOM     22  N   UNL     1      20.823   7.721  54.534  1.00  0.00    -0.242 NA
ATOM     23  C   UNL     1      20.521   7.030  56.947  1.00  0.00     0.068 C 
ENDBRANCH  15  18
BRANCH  16  24
ATOM     24  C   UNL     1      23.950   5.565  49.221  1.00  0.00     0.416 C 
ATOM     25  F   UNL     1      24.697   6.597  48.779  1.00  0.00    -0.166 F 
ATOM     26  F   UNL     1      24.448   4.549  48.526  1.00  0.00    -0.166 F 
ATOM     27  F   UNL     1      22.701   5.893  48.832  1.00  0.00    -0.166 F 
ENDBRANCH  16  24
ENDBRANCH  10  12
ENDBRANCH   1   8
BRANCH   6  28
ATOM     28  N   UNL     1      30.669  -0.538  52.046  1.00  0.00    -0.324 N 
ATOM     29  H   UNL     1      30.525  -1.324  51.396  1.00  0.00     0.170 HD
BRANCH  28  30
ATOM     30  C   UNL     1      31.940   0.016  52.210  1.00  0.00     0.227 A 
ATOM     31  N   UNL     1      32.334   0.961  53.055  1.00  0.00    -0.221 NA
ATOM     32  N   UNL     1      32.752  -0.531  51.269  1.00  0.00    -0.213 NA
ATOM     33  C   UNL     1      33.621   1.347  52.974  1.00  0.00     0.117 A 
ATOM     34  C   UNL     1      34.014  -0.092  51.206  1.00  0.00     0.077 A 
ATOM     35  C   UNL     1      34.468   0.855  52.056  1.00  0.00     0.049 A 
BRANCH  34  36
ATOM     36  C   UNL     1      34.872  -0.747  50.184  1.00  0.00     0.019 A 
ATOM     37  C   UNL     1      36.196  -0.337  49.963  1.00  0.00     0.013 A 
ATOM     38  C   UNL     1      34.366  -1.796  49.391  1.00  0.00     0.121 A 
ATOM     39  C   UNL     1      36.943  -0.969  48.976  1.00  0.00     0.021 A 
ATOM     40  N   UNL     1      35.078  -2.403  48.433  1.00  0.00    -0.264 NA
ATOM     41  C   UNL     1      36.350  -2.008  48.261  1.00  0.00     0.111 A 
ENDBRANCH  34  36
ENDBRANCH  28  30
ENDBRANCH   6  28
TORSDOF 7
ENDMDL
MODEL 2
REMARK VINA RESULT:   -13.444      2.238      3.691
REMARK INTER + INTRA:         -16.716
REMARK INTER:                 -15.532
REMARK INTRA:                  -1.184
REMARK CONF_INDEPENDENT:        2.088
REMARK UNBOUND:                -1.184
REMARK SMILES Cc1cn(-c2cc(NC(=O)c3ccc(C)c(Nc4nccc(-c5cccnc5)n4)c3)cc(C(F)(F)F)c2)cn1
REMARK SMILES IDX 11 1 12 2 13 3 14 4 15 5 16 6 30 7 9 8 10 9 8 10 7 12 6 13
REMARK SMILES IDX 31 14 5 15 32 16 37 17 4 18 3 19 38 20 2 21 39 22 1 23 33 24
REMARK SMILES IDX 34 25 35 26 36 27 17 28 18 30 19 31 29 32 20 33 22 34 21 35
REMARK SMILES IDX 23 36 24 37 28 38 25 39 27 40 26 41
REMARK H PARENT 8 11 17 29
ROOT
ATOM      1  C   UNL     1      28.285   1.361  53.420  1.00  0.00     0.042 A 
ATOM      2  C   UNL     1      28.028   0.782  54.672  1.00  0.00     0.014 A 
ATOM      3  C   UNL     1      28.780  -0.295  55.143  1.00  0.00     0.006 A 
ATOM      4  C   UNL     1      29.754  -0.889  54.357  1.00  0.00    -0.027 A 
ATOM      5  C   UNL     1      30.561  -2.069  54.881  1.00  0.00     0.046 C 
ATOM      6  C   UNL     1      29.944  -0.385  53.071  1.00  0.00     0.045 A 
ATOM      7  C   UNL     1      29.197   0.713  52.627  1.00  0.00     0.040 A 
ENDROOT
BRANCH   1   8
ATOM      8  C   UNL     1      27.463   2.414  52.792  1.00  0.00     0.255 C 
ATOM      9  O   UNL     1      27.782   2.721  51.670  1.00  0.00    -0.269 OA
ATOM     10  N   UNL     1      26.321   2.727  53.423  1.00  0.00    -0.322 N 
ATOM     11  H   UNL     1      26.141   2.260  54.323  1.00  0.00     0.170 HD
BRANCH  10  12
ATOM     12  C   UNL     1      25.360   3.623  52.973  1.00  0.00     0.044 A 
ATOM     13  C   UNL     1      25.255   3.947  51.598  1.00  0.00     0.052 A 
ATOM     14  C   UNL     1      24.545   4.323  53.890  1.00  0.00     0.039 A 
ATOM     15  C   UNL     1      24.285   4.840  51.134  1.00  0.00     0.049 A 
ATOM     16  C   UNL     1      23.542   5.215  53.414  1.00  0.00     0.060 A 
ATOM     17  C   UNL     1      23.454   5.483  52.046  1.00  0.00     0.039 A 
BRANCH  15  18
ATOM     18  N   UNL     1      24.145   5.136  49.770  1.00  0.00    -0.306 N 
ATOM     19  C   UNL     1      23.519   6.227  49.169  1.00  0.00     0.116 A 
ATOM     20  C   UNL     1      24.515   4.364  48.741  1.00  0.00     0.204 A 
ATOM     21  C   UNL     1      23.554   6.049  47.831  1.00  0.00     0.056 A 
ATOM     22  N   UNL     1      24.211   4.894  47.582  1.00  0.00    -0.242 NA
ATOM     23  C   UNL     1      23.023   6.969  46.758  1.00  0.00     0.068 C 
ENDBRANCH  15  18
BRANCH  16  24
ATOM     24  C   UNL     1      22.654   5.896  54.404  1.00  0.00     0.416 C 
ATOM     25  F   UNL     1      23.218   6.139  55.603  1.00  0.00    -0.166 F 
ATOM     26  F   UNL     1      22.336   7.119  53.997  1.00  0.00    -0.166 F 
ATOM     27  F   UNL     1      21.568   5.157  54.712  1.00  0.00    -0.166 F 
ENDBRANCH  16  24
ENDBRANCH  10  12
ENDBRANCH   1   8
BRANCH   6  28
ATOM     28  N   UNL     1      31.028  -0.860  52.322  1.00  0.00    -0.324 N 
ATOM     29  H   UNL     1      30.939  -1.725  51.771  1.00  0.00     0.170 HD
BRANCH  28  30
ATOM     30  C   UNL     1      32.230  -0.150  52.328  1.00  0.00     0.227 A 
ATOM     31  N   UNL     1      32.551   0.938  53.017  1.00  0.00    -0.221 NA
ATOM     32  N   UNL     1      33.052  -0.724  51.412  1.00  0.00    -0.213 NA
ATOM     33  C   UNL     1      33.777   1.452  52.801  1.00  0.00     0.117 A 
ATOM     34  C   UNL     1      34.248  -0.159  51.209  1.00  0.00     0.077 A 
ATOM     35  C   UNL     1      34.628   0.938  51.898  1.00  0.00     0.049 A 
BRANCH  34  36
ATOM     36  C   UNL     1      35.124  -0.845  50.223  1.00  0.00     0.019 A 
ATOM     37  C   UNL     1      36.522  -0.733  50.278  1.00  0.00     0.013 A 
ATOM     38  C   UNL     1      34.565  -1.621  49.189  1.00  0.00     0.121 A 
ATOM     39  C   UNL     1      37.289  -1.375  49.315  1.00  0.00     0.021 A 
ATOM     40  N   UNL     1      35.299  -2.237  48.253  1.00  0.00    -0.264 NA
ATOM     41  C   UNL     1      36.635  -2.133  48.344  1.00  0.00     0.111 A 
ENDBRANCH  34  36
ENDBRANCH  28  30
ENDBRANCH   6  28
TORSDOF 7
ENDMDL
MODEL 3
REMARK VINA RESULT:   -12.430      1.199      1.876
REMARK INTER + INTRA:         -15.900
REMARK INTER:                 -14.518
REMARK INTRA:                  -1.382
REMARK CONF_INDEPENDENT:        2.088
REMARK UNBOUND:                -1.382
REMARK SMILES Cc1cn(-c2cc(NC(=O)c3ccc(C)c(Nc4nccc(-c5cccnc5)n4)c3)cc(C(F)(F)F)c2)cn1
REMARK SMILES IDX 11 1 12 2 13 3 14 4 15 5 16 6 30 7 9 8 10 9 8 10 7 12 6 13
REMARK SMILES IDX 31 14 5 15 32 16 37 17 4 18 3 19 38 20 2 21 39 22 1 23 33 24
REMARK SMILES IDX 34 25 35 26 36 27 17 28 18 30 19 31 29 32 20 33 22 34 21 35
REMARK SMILES IDX 23 36 24 37 28 38 25 39 27 40 26 41
REMARK H PARENT 8 11 17 29
ROOT
ATOM      1  C   UNL     1      28.110   1.916  53.074  1.00  0.00     0.042 A 
ATOM      2  C   UNL     1      27.737   0.597  53.374  1.00  0.00     0.014 A 
ATOM      3  C   UNL     1      28.628  -0.288  53.983  1.00  0.00     0.006 A 
ATOM      4  C   UNL     1      29.940   0.075  54.240  1.00  0.00    -0.027 A 
ATOM      5  C   UNL     1      30.902  -0.904  54.897  1.00  0.00     0.046 C 
ATOM      6  C   UNL     1      30.345   1.350  53.849  1.00  0.00     0.045 A 
ATOM      7  C   UNL     1      29.430   2.232  53.262  1.00  0.00     0.040 A 
ENDROOT
BRANCH   1   8
ATOM      8  C   UNL     1      27.279   2.876  52.320  1.00  0.00     0.255 C 
ATOM      9  O   UNL     1      27.529   2.963  51.142  1.00  0.00    -0.269 OA
ATOM     10  N   UNL     1      26.196   3.347  52.955  1.00  0.00    -0.322 N 
ATOM     11  H   UNL     1      26.065   3.057  53.934  1.00  0.00     0.170 HD
BRANCH  10  12
ATOM     12  C   UNL     1      25.234   4.191  52.412  1.00  0.00     0.044 A 
ATOM     13  C   UNL     1      24.304   4.863  53.243  1.00  0.00     0.052 A 
ATOM     14  C   UNL     1      25.086   4.303  51.012  1.00  0.00     0.039 A 
ATOM     15  C   UNL     1      23.340   5.721  52.707  1.00  0.00     0.049 A 
ATOM     16  C   UNL     1      24.117   5.194  50.469  1.00  0.00     0.060 A 
ATOM     17  C   UNL     1      23.239   5.861  51.327  1.00  0.00     0.039 A 
BRANCH  15  18
ATOM     18  N   UNL     1      22.441   6.424  53.524  1.00  0.00    -0.306 N 
ATOM     19  C   UNL     1      22.167   6.246  54.879  1.00  0.00     0.116 A 
ATOM     20  C   UNL     1      21.578   7.370  53.137  1.00  0.00     0.204 A 
ATOM     21  C   UNL     1      21.170   7.091  55.222  1.00  0.00     0.056 A 
ATOM     22  N   UNL     1      20.838   7.808  54.126  1.00  0.00    -0.242 NA
ATOM     23  C   UNL     1      20.540   7.281  56.581  1.00  0.00     0.068 C 
ENDBRANCH  15  18
BRANCH  16  24
ATOM     24  C   UNL     1      24.022   5.339  48.985  1.00  0.00     0.416 C 
ATOM     25  F   UNL     1      24.422   4.262  48.281  1.00  0.00    -0.166 F 
ATOM     26  F   UNL     1      22.758   5.466  48.598  1.00  0.00    -0.166 F 
ATOM     27  F   UNL     1      24.807   6.330  48.515  1.00  0.00    -0.166 F 
ENDBRANCH  16  24
ENDBRANCH  10  12
ENDBRANCH   1   8
BRANCH   6  28
ATOM     28  N   UNL     1      31.614   1.796  54.242  1.00  0.00    -0.324 N 
ATOM     29  H   UNL     1      31.707   2.534  54.954  1.00  0.00     0.170 HD
BRANCH  28  30
ATOM     30  C   UNL     1      32.751   1.232  53.661  1.00  0.00     0.227 A 
ATOM     31  N   UNL     1      34.020   1.350  54.029  1.00  0.00    -0.221 NA
ATOM     32  N   UNL     1      32.355   0.563  52.547  1.00  0.00    -0.213 NA
ATOM     33  C   UNL     1      34.935   0.730  53.259  1.00  0.00     0.117 A 
ATOM     34  C   UNL     1      33.303  -0.009  51.795  1.00  0.00     0.077 A 
ATOM     35  C   UNL     1      34.607   0.068  52.138  1.00  0.00     0.049 A 
BRANCH  34  36
ATOM     36  C   UNL     1      32.816  -0.758  50.607  1.00  0.00     0.019 A 
ATOM     37  C   UNL     1      31.445  -0.923  50.353  1.00  0.00     0.013 A 
ATOM     38  C   UNL     1      33.728  -1.339  49.705  1.00  0.00     0.121 A 
ATOM     39  C   UNL     1      31.048  -1.654  49.241  1.00  0.00     0.021 A 
ATOM     40  N   UNL     1      33.351  -2.052  48.636  1.00  0.00    -0.264 NA
ATOM     41  C   UNL     1      32.034  -2.172  48.403  1.00  0.00     0.111 A 
ENDBRANCH  34  36
ENDBRANCH  28  30
ENDBRANCH   6  28
TORSDOF 7
ENDMDL
MODEL 4
REMARK VINA RESULT:   -12.170      1.502      3.598
REMARK INTER + INTRA:         -15.828
REMARK INTER:                 -14.258
REMARK INTRA:                  -1.570
REMARK CONF_INDEPENDENT:        2.088
REMARK UNBOUND:                -1.570
REMARK SMILES Cc1cn(-c2cc(NC(=O)c3ccc(C)c(Nc4nccc(-c5cccnc5)n4)c3)cc(C(F)(F)F)c2)cn1
REMARK SMILES IDX 11 1 12 2 13 3 14 4 15 5 16 6 30 7 9 8 10 9 8 10 7 12 6 13
REMARK SMILES IDX 31 14 5 15 32 16 37 17 4 18 3 19 38 20 2 21 39 22 1 23 33 24
REMARK SMILES IDX 34 25 35 26 36 27 17 28 18 30 19 31 29 32 20 33 22 34 21 35
REMARK SMILES IDX 23 36 24 37 28 38 25 39 27 40 26 41
REMARK H PARENT 8 11 17 29
ROOT
ATOM      1  C   UNL     1      27.587   1.727  52.745  1.00  0.00     0.042 A 
ATOM      2  C   UNL     1      27.352   1.173  54.012  1.00  0.00     0.014 A 
ATOM      3  C   UNL     1      28.093   0.087  54.480  1.00  0.00     0.006 A 
ATOM      4  C   UNL     1      29.033  -0.540  53.677  1.00  0.00    -0.027 A 
ATOM      5  C   UNL     1      29.829  -1.729  54.197  1.00  0.00     0.046 C 
ATOM      6  C   UNL     1      29.199  -0.059  52.379  1.00  0.00     0.045 A 
ATOM      7  C   UNL     1      28.463   1.049  51.938  1.00  0.00     0.040 A 
ENDROOT
BRANCH   1   8
ATOM      8  C   UNL     1      26.770   2.788  52.124  1.00  0.00     0.255 C 
ATOM      9  O   UNL     1      26.875   2.889  50.926  1.00  0.00    -0.269 OA
ATOM     10  N   UNL     1      25.830   3.344  52.903  1.00  0.00    -0.322 N 
ATOM     11  H   UNL     1      25.796   3.037  53.886  1.00  0.00     0.170 HD
BRANCH  10  12
ATOM     12  C   UNL     1      24.899   4.295  52.506  1.00  0.00     0.044 A 
ATOM     13  C   UNL     1      24.022   4.891  53.447  1.00  0.00     0.052 A 
ATOM     14  C   UNL     1      24.723   4.601  51.139  1.00  0.00     0.039 A 
ATOM     15  C   UNL     1      23.089   5.857  53.058  1.00  0.00     0.049 A 
ATOM     16  C   UNL     1      23.787   5.601  50.749  1.00  0.00     0.060 A 
ATOM     17  C   UNL     1      22.963   6.186  51.713  1.00  0.00     0.039 A 
BRANCH  15  18
ATOM     18  N   UNL     1      22.245   6.483  53.988  1.00  0.00    -0.306 N 
ATOM     19  C   UNL     1      21.987   6.132  55.312  1.00  0.00     0.116 A 
ATOM     20  C   UNL     1      21.428   7.517  53.758  1.00  0.00     0.204 A 
ATOM     21  C   UNL     1      21.043   6.970  55.794  1.00  0.00     0.056 A 
ATOM     22  N   UNL     1      20.730   7.850  54.817  1.00  0.00    -0.242 NA
ATOM     23  C   UNL     1      20.450   7.000  57.182  1.00  0.00     0.068 C 
ENDBRANCH  15  18
BRANCH  16  24
ATOM     24  C   UNL     1      23.665   5.948  49.300  1.00  0.00     0.416 C 
ATOM     25  F   UNL     1      23.568   4.893  48.468  1.00  0.00    -0.166 F 
ATOM     26  F   UNL     1      22.530   6.594  49.059  1.00  0.00    -0.166 F 
ATOM     27  F   UNL     1      24.744   6.613  48.839  1.00  0.00    -0.166 F 
ENDBRANCH  16  24
ENDBRANCH  10  12
ENDBRANCH   1   8
BRANCH   6  28
ATOM     28  N   UNL     1      30.252  -0.567  51.609  1.00  0.00    -0.324 N 
ATOM     29  H   UNL     1      30.077  -1.306  50.913  1.00  0.00     0.170 HD
BRANCH  28  30
ATOM     30  C   UNL     1      31.542  -0.064  51.791  1.00  0.00     0.227 A 
ATOM     31  N   UNL     1      32.666  -0.413  51.178  1.00  0.00    -0.221 NA
ATOM     32  N   UNL     1      31.492   0.838  52.804  1.00  0.00    -0.213 NA
ATOM     33  C   UNL     1      33.792   0.207  51.579  1.00  0.00     0.117 A 
ATOM     34  C   UNL     1      32.642   1.404  53.189  1.00  0.00     0.077 A 
ATOM     35  C   UNL     1      33.809   1.096  52.585  1.00  0.00     0.049 A 
BRANCH  34  36
ATOM     36  C   UNL     1      32.529   2.410  54.278  1.00  0.00     0.019 A 
ATOM     37  C   UNL     1      31.432   2.427  55.153  1.00  0.00     0.013 A 
ATOM     38  C   UNL     1      33.525   3.392  54.450  1.00  0.00     0.121 A 
ATOM     39  C   UNL     1      31.368   3.407  56.136  1.00  0.00     0.021 A 
ATOM     40  N   UNL     1      33.465   4.343  55.390  1.00  0.00    -0.264 NA
ATOM     41  C   UNL     1      32.417   4.321  56.230  1.00  0.00     0.111 A 
ENDBRANCH  34  36
ENDBRANCH  28  30
ENDBRANCH   6  28
TORSDOF 7
ENDMDL
MODEL 5
REMARK VINA RESULT:   -11.576      4.082     11.245
REMARK INTER + INTRA:         -14.821
REMARK INTER:                 -13.664
REMARK INTRA:                  -1.158
REMARK CONF_INDEPENDENT:        2.088
REMARK UNBOUND:                -1.158
REMARK SMILES Cc1cn(-c2cc(NC(=O)c3ccc(C)c(Nc4nccc(-c5cccnc5)n4)c3)cc(C(F)(F)F)c2)cn1
REMARK SMILES IDX 11 1 12 2 13 3 14 4 15 5 16 6 30 7 9 8 10 9 8 10 7 12 6 13
REMARK SMILES IDX 31 14 5 15 32 16 37 17 4 18 3 19 38 20 2 21 39 22 1 23 33 24
REMARK SMILES IDX 34 25 35 26 36 27 17 28 18 30 19 31 29 32 20 33 22 34 21 35
REMARK SMILES IDX 23 36 24 37 28 38 25 39 27 40 26 41
REMARK H PARENT 8 11 17 29
ROOT
ATOM      1  C   UNL     1      25.856   3.832  51.982  1.00  0.00     0.042 A 
ATOM      2  C   UNL     1      25.277   4.341  50.810  1.00  0.00     0.014 A 
ATOM      3  C   UNL     1      24.148   5.161  50.854  1.00  0.00     0.006 A 
ATOM      4  C   UNL     1      23.505   5.435  52.051  1.00  0.00    -0.027 A 
ATOM      5  C   UNL     1      22.270   6.324  52.083  1.00  0.00     0.046 C 
ATOM      6  C   UNL     1      24.015   4.847  53.207  1.00  0.00     0.045 A 
ATOM      7  C   UNL     1      25.164   4.048  53.145  1.00  0.00     0.040 A 
ENDROOT
BRANCH   1   8
ATOM      8  C   UNL     1      26.967   2.861  52.020  1.00  0.00     0.255 C 
ATOM      9  O   UNL     1      27.677   2.847  51.045  1.00  0.00    -0.269 OA
ATOM     10  N   UNL     1      27.215   2.292  53.210  1.00  0.00    -0.322 N 
ATOM     11  H   UNL     1      26.575   2.525  53.982  1.00  0.00     0.170 HD
BRANCH  10  12
ATOM     12  C   UNL     1      28.257   1.419  53.495  1.00  0.00     0.044 A 
ATOM     13  C   UNL     1      29.564   1.661  53.005  1.00  0.00     0.052 A 
ATOM     14  C   UNL     1      28.012   0.207  54.178  1.00  0.00     0.039 A 
ATOM     15  C   UNL     1      30.621   0.794  53.295  1.00  0.00     0.049 A 
ATOM     16  C   UNL     1      29.093  -0.664  54.491  1.00  0.00     0.060 A 
ATOM     17  C   UNL     1      30.373  -0.371  54.014  1.00  0.00     0.039 A 
BRANCH  15  18
ATOM     18  N   UNL     1      31.927   1.047  52.850  1.00  0.00    -0.306 N 
ATOM     19  C   UNL     1      32.564   0.590  51.698  1.00  0.00     0.116 A 
ATOM     20  C   UNL     1      32.880   1.722  53.505  1.00  0.00     0.204 A 
ATOM     21  C   UNL     1      33.845   1.017  51.726  1.00  0.00     0.056 A 
ATOM     22  N   UNL     1      34.014   1.751  52.849  1.00  0.00    -0.242 NA
ATOM     23  C   UNL     1      34.922   0.792  50.693  1.00  0.00     0.068 C 
ENDBRANCH  15  18
BRANCH  16  24
ATOM     24  C   UNL     1      28.814  -1.910  55.267  1.00  0.00     0.416 C 
ATOM     25  F   UNL     1      27.945  -2.761  54.686  1.00  0.00    -0.166 F 
ATOM     26  F   UNL     1      29.905  -2.661  55.372  1.00  0.00    -0.166 F 
ATOM     27  F   UNL     1      28.248  -1.653  56.464  1.00  0.00    -0.166 F 
ENDBRANCH  16  24
ENDBRANCH  10  12
ENDBRANCH   1   8
BRANCH   6  28
ATOM     28  N   UNL     1      23.484   5.237  54.443  1.00  0.00    -0.324 N 
ATOM     29  H   UNL     1      22.826   4.623  54.943  1.00  0.00     0.170 HD
BRANCH  28  30
ATOM     30  C   UNL     1      23.854   6.466  54.992  1.00  0.00     0.227 A 
ATOM     31  N   UNL     1      23.754   7.679  54.462  1.00  0.00    -0.221 NA
ATOM     32  N   UNL     1      24.440   6.222  56.193  1.00  0.00    -0.213 NA
ATOM     33  C   UNL     1      24.232   8.702  55.196  1.00  0.00     0.117 A 
ATOM     34  C   UNL     1      24.929   7.267  56.871  1.00  0.00     0.077 A 
ATOM     35  C   UNL     1      24.835   8.522  56.382  1.00  0.00     0.049 A 
BRANCH  34  36
ATOM     36  C   UNL     1      25.528   6.951  58.194  1.00  0.00     0.019 A 
ATOM     37  C   UNL     1      24.732   6.761  59.335  1.00  0.00     0.013 A 
ATOM     38  C   UNL     1      26.925   6.847  58.340  1.00  0.00     0.121 A 
ATOM     39  C   UNL     1      25.348   6.493  60.550  1.00  0.00     0.021 A 
ATOM     40  N   UNL     1      27.525   6.597  59.511  1.00  0.00    -0.264 NA
ATOM     41  C   UNL     1      26.739   6.395  60.581  1.00  0.00     0.111 A 
ENDBRANCH  34  36
ENDBRANCH  28  30
ENDBRANCH   6  28
TORSDOF 7
ENDMDL
MODEL 6
REMARK VINA RESULT:   -11.489      2.136      3.214
REMARK INTER + INTRA:         -14.896
REMARK INTER:                 -13.577
REMARK INTRA:                  -1.319
REMARK CONF_INDEPENDENT:        2.088
REMARK UNBOUND:                -1.319
REMARK SMILES Cc1cn(-c2cc(NC(=O)c3ccc(C)c(Nc4nccc(-c5cccnc5)n4)c3)cc(C(F)(F)F)c2)cn1
REMARK SMILES IDX 11 1 12 2 13 3 14 4 15 5 16 6 30 7 9 8 10 9 8 10 7 12 6 13
REMARK SMILES IDX 31 14 5 15 32 16 37 17 4 18 3 19 38 20 2 21 39 22 1 23 33 24
REMARK SMILES IDX 34 25 35 26 36 27 17 28 18 30 19 31 29 32 20 33 22 34 21 35
REMARK SMILES IDX 23 36 24 37 28 38 25 39 27 40 26 41
REMARK H PARENT 8 11 17 29
ROOT
ATOM      1  C   UNL     1      26.961   2.409  52.391  1.00  0.00     0.042 A 
ATOM      2  C   UNL     1      27.121   1.039  52.136  1.00  0.00     0.014 A 
ATOM      3  C   UNL     1      27.896   0.230  52.968  1.00  0.00     0.006 A 
ATOM      4  C   UNL     1      28.606   0.764  54.031  1.00  0.00    -0.027 A 
ATOM      5  C   UNL     1      29.454  -0.129  54.925  1.00  0.00     0.046 C 
ATOM      6  C   UNL     1      28.534   2.143  54.228  1.00  0.00     0.045 A 
ATOM      7  C   UNL     1      27.731   2.933  53.397  1.00  0.00     0.040 A 
ENDROOT
BRANCH   1   8
ATOM      8  C   UNL     1      26.268   3.358  51.498  1.00  0.00     0.255 C 
ATOM      9  O   UNL     1      26.495   3.222  50.320  1.00  0.00    -0.269 OA
ATOM     10  N   UNL     1      25.288   4.086  52.054  1.00  0.00    -0.322 N 
ATOM     11  H   UNL     1      25.141   3.975  53.067  1.00  0.00     0.170 HD
BRANCH  10  12
ATOM     12  C   UNL     1      24.453   4.975  51.389  1.00  0.00     0.044 A 
ATOM     13  C   UNL     1      23.814   6.031  52.083  1.00  0.00     0.052 A 
ATOM     14  C   UNL     1      24.127   4.773  50.030  1.00  0.00     0.039 A 
ATOM     15  C   UNL     1      22.980   6.936  51.421  1.00  0.00     0.049 A 
ATOM     16  C   UNL     1      23.295   5.709  49.351  1.00  0.00     0.060 A 
ATOM     17  C   UNL     1      22.710   6.755  50.068  1.00  0.00     0.039 A 
BRANCH  15  18
ATOM     18  N   UNL     1      22.376   8.011  52.091  1.00  0.00    -0.306 N 
ATOM     19  C   UNL     1      21.524   7.987  53.194  1.00  0.00     0.116 A 
ATOM     20  C   UNL     1      22.425   9.302  51.743  1.00  0.00     0.204 A 
ATOM     21  C   UNL     1      21.120   9.252  53.442  1.00  0.00     0.056 A 
ATOM     22  N   UNL     1      21.720  10.064  52.544  1.00  0.00    -0.242 NA
ATOM     23  C   UNL     1      20.208   9.737  54.544  1.00  0.00     0.068 C 
ENDBRANCH  15  18
BRANCH  16  24
ATOM     24  C   UNL     1      23.016   5.505  47.897  1.00  0.00     0.416 C 
ATOM     25  F   UNL     1      22.584   4.271  47.568  1.00  0.00    -0.166 F 
ATOM     26  F   UNL     1      22.005   6.266  47.494  1.00  0.00    -0.166 F 
ATOM     27  F   UNL     1      24.118   5.665  47.136  1.00  0.00    -0.166 F 
ENDBRANCH  16  24
ENDBRANCH  10  12
ENDBRANCH   1   8
BRANCH   6  28
ATOM     28  N   UNL     1      29.109   2.681  55.386  1.00  0.00    -0.324 N 
ATOM     29  H   UNL     1      28.527   2.870  56.215  1.00  0.00     0.170 HD
BRANCH  28  30
ATOM     30  C   UNL     1      30.476   2.960  55.409  1.00  0.00     0.227 A 
ATOM     31  N   UNL     1      31.131   3.859  56.133  1.00  0.00    -0.221 NA
ATOM     32  N   UNL     1      31.071   2.182  54.468  1.00  0.00    -0.213 NA
ATOM     33  C   UNL     1      32.458   3.952  55.927  1.00  0.00     0.117 A 
ATOM     34  C   UNL     1      32.387   2.333  54.277  1.00  0.00     0.077 A 
ATOM     35  C   UNL     1      33.100   3.222  55.002  1.00  0.00     0.049 A 
BRANCH  34  36
ATOM     36  C   UNL     1      32.996   1.435  53.262  1.00  0.00     0.019 A 
ATOM     37  C   UNL     1      32.207   0.639  52.416  1.00  0.00     0.013 A 
ATOM     38  C   UNL     1      34.396   1.347  53.132  1.00  0.00     0.121 A 
ATOM     39  C   UNL     1      32.831  -0.201  51.503  1.00  0.00     0.021 A 
ATOM     40  N   UNL     1      35.004   0.533  52.259  1.00  0.00    -0.264 NA
ATOM     41  C   UNL     1      34.225  -0.198  51.446  1.00  0.00     0.111 A 
ENDBRANCH  34  36
ENDBRANCH  28  30
ENDBRANCH   6  28
TORSDOF 7
ENDMDL
MODEL 7
REMARK VINA RESULT:   -11.408      2.961      4.047
REMARK INTER + INTRA:         -14.597
REMARK INTER:                 -13.496
REMARK INTRA:                  -1.101
REMARK CONF_INDEPENDENT:        2.088
REMARK UNBOUND:                -1.101
REMARK SMILES Cc1cn(-c2cc(NC(=O)c3ccc(C)c(Nc4nccc(-c5cccnc5)n4)c3)cc(C(F)(F)F)c2)cn1
REMARK SMILES IDX 11 1 12 2 13 3 14 4 15 5 16 6 30 7 9 8 10 9 8 10 7 12 6 13
REMARK SMILES IDX 31 14 5 15 32 16 37 17 4 18 3 19 38 20 2 21 39 22 1 23 33 24
REMARK SMILES IDX 34 25 35 26 36 27 17 28 18 30 19 31 29 32 20 33 22 34 21 35
REMARK SMILES IDX 23 36 24 37 28 38 25 39 27 40 26 41
REMARK H PARENT 8 11 17 29
ROOT
ATOM      1  C   UNL     1      28.132   2.234  52.698  1.00  0.00     0.042 A 
ATOM      2  C   UNL     1      28.142   3.009  53.868  1.00  0.00     0.014 A 
ATOM      3  C   UNL     1      29.147   2.866  54.826  1.00  0.00     0.006 A 
ATOM      4  C   UNL     1      30.127   1.895  54.700  1.00  0.00    -0.027 A 
ATOM      5  C   UNL     1      31.212   1.745  55.757  1.00  0.00     0.046 C 
ATOM      6  C   UNL     1      30.062   1.052  53.591  1.00  0.00     0.045 A 
ATOM      7  C   UNL     1      29.060   1.229  52.628  1.00  0.00     0.040 A 
ENDROOT
BRANCH   1   8
ATOM      8  C   UNL     1      27.045   2.230  51.699  1.00  0.00     0.255 C 
ATOM      9  O   UNL     1      26.743   1.145  51.267  1.00  0.00    -0.269 OA
ATOM     10  N   UNL     1      26.355   3.373  51.570  1.00  0.00    -0.322 N 
ATOM     11  H   UNL     1      26.677   4.178  52.126  1.00  0.00     0.170 HD
BRANCH  10  12
ATOM     12  C   UNL     1      25.247   3.570  50.756  1.00  0.00     0.044 A 
ATOM     13  C   UNL     1      24.488   2.471  50.282  1.00  0.00     0.052 A 
ATOM     14  C   UNL     1      24.923   4.861  50.285  1.00  0.00     0.039 A 
ATOM     15  C   UNL     1      23.366   2.660  49.471  1.00  0.00     0.049 A 
ATOM     16  C   UNL     1      23.766   5.053  49.477  1.00  0.00     0.060 A 
ATOM     17  C   UNL     1      23.028   3.944  49.057  1.00  0.00     0.039 A 
BRANCH  15  18
ATOM     18  N   UNL     1      22.584   1.581  49.031  1.00  0.00    -0.306 N 
ATOM     19  C   UNL     1      22.186   0.445  49.733  1.00  0.00     0.116 A 
ATOM     20  C   UNL     1      22.127   1.377  47.790  1.00  0.00     0.204 A 
ATOM     21  C   UNL     1      21.516  -0.364  48.882  1.00  0.00     0.056 A 
ATOM     22  N   UNL     1      21.462   0.253  47.680  1.00  0.00    -0.242 NA
ATOM     23  C   UNL     1      20.875  -1.698  49.179  1.00  0.00     0.068 C 
ENDBRANCH  15  18
BRANCH  16  24
ATOM     24  C   UNL     1      23.412   6.438  49.041  1.00  0.00     0.416 C 
ATOM     25  F   UNL     1      23.727   6.732  47.764  1.00  0.00    -0.166 F 
ATOM     26  F   UNL     1      22.097   6.619  49.048  1.00  0.00    -0.166 F 
ATOM     27  F   UNL     1      24.066   7.381  49.750  1.00  0.00    -0.166 F 
ENDBRANCH  16  24
ENDBRANCH  10  12
ENDBRANCH   1   8
BRANCH   6  28
ATOM     28  N   UNL     1      31.128   0.174  53.358  1.00  0.00    -0.324 N 
ATOM     29  H   UNL     1      31.007  -0.839  53.499  1.00  0.00     0.170 HD
BRANCH  28  30
ATOM     30  C   UNL     1      32.357   0.684  52.934  1.00  0.00     0.227 A 
ATOM     31  N   UNL     1      32.945   1.826  53.267  1.00  0.00    -0.221 NA
ATOM     32  N   UNL     1      32.863  -0.176  52.013  1.00  0.00    -0.213 NA
ATOM     33  C   UNL     1      34.122   2.097  52.671  1.00  0.00     0.117 A 
ATOM     34  C   UNL     1      34.019   0.152  51.424  1.00  0.00     0.077 A 
ATOM     35  C   UNL     1      34.665   1.295  51.743  1.00  0.00     0.049 A 
BRANCH  34  36
ATOM     36  C   UNL     1      34.548  -0.838  50.450  1.00  0.00     0.019 A 
ATOM     37  C   UNL     1      35.796  -0.665  49.830  1.00  0.00     0.013 A 
ATOM     38  C   UNL     1      33.796  -1.979  50.110  1.00  0.00     0.121 A 
ATOM     39  C   UNL     1      36.229  -1.611  48.909  1.00  0.00     0.021 A 
ATOM     40  N   UNL     1      34.204  -2.890  49.217  1.00  0.00    -0.264 NA
ATOM     41  C   UNL     1      35.412  -2.713  48.658  1.00  0.00     0.111 A 
ENDBRANCH  34  36
ENDBRANCH  28  30
ENDBRANCH   6  28
TORSDOF 7
ENDMDL
MODEL 8
REMARK VINA RESULT:   -11.133      3.693     12.075
REMARK INTER + INTRA:         -14.444
REMARK INTER:                 -13.221
REMARK INTRA:                  -1.223
REMARK CONF_INDEPENDENT:        2.088
REMARK UNBOUND:                -1.223
REMARK SMILES Cc1cn(-c2cc(NC(=O)c3ccc(C)c(Nc4nccc(-c5cccnc5)n4)c3)cc(C(F)(F)F)c2)cn1
REMARK SMILES IDX 11 1 12 2 13 3 14 4 15 5 16 6 30 7 9 8 10 9 8 10 7 12 6 13
REMARK SMILES IDX 31 14 5 15 32 16 37 17 4 18 3 19 38 20 2 21 39 22 1 23 33 24
REMARK SMILES IDX 34 25 35 26 36 27 17 28 18 30 19 31 29 32 20 33 22 34 21 35
REMARK SMILES IDX 23 36 24 37 28 38 25 39 27 40 26 41
REMARK H PARENT 8 11 17 29
ROOT
ATOM      1  C   UNL     1      26.132   3.449  51.644  1.00  0.00     0.042 A 
ATOM      2  C   UNL     1      25.471   3.755  50.444  1.00  0.00     0.014 A 
ATOM      3  C   UNL     1      24.222   4.376  50.441  1.00  0.00     0.006 A 
ATOM      4  C   UNL     1      23.547   4.640  51.622  1.00  0.00    -0.027 A 
ATOM      5  C   UNL     1      22.181   5.311  51.602  1.00  0.00     0.046 C 
ATOM      6  C   UNL     1      24.152   4.244  52.814  1.00  0.00     0.045 A 
ATOM      7  C   UNL     1      25.418   3.645  52.797  1.00  0.00     0.040 A 
ENDROOT
BRANCH   1   8
ATOM      8  C   UNL     1      27.390   2.683  51.742  1.00  0.00     0.255 C 
ATOM      9  O   UNL     1      28.300   3.092  51.065  1.00  0.00    -0.269 OA
ATOM     10  N   UNL     1      27.462   1.790  52.742  1.00  0.00    -0.322 N 
ATOM     11  H   UNL     1      26.617   1.663  53.316  1.00  0.00     0.170 HD
BRANCH  10  12
ATOM     12  C   UNL     1      28.572   1.023  53.072  1.00  0.00     0.044 A 
ATOM     13  C   UNL     1      29.852   1.334  52.549  1.00  0.00     0.052 A 
ATOM     14  C   UNL     1      28.429  -0.154  53.838  1.00  0.00     0.039 A 
ATOM     15  C   UNL     1      30.977   0.574  52.883  1.00  0.00     0.049 A 
ATOM     16  C   UNL     1      29.579  -0.914  54.196  1.00  0.00     0.060 A 
ATOM     17  C   UNL     1      30.828  -0.554  53.683  1.00  0.00     0.039 A 
BRANCH  15  18
ATOM     18  N   UNL     1      32.255   0.898  52.405  1.00  0.00    -0.306 N 
ATOM     19  C   UNL     1      32.883   0.482  51.232  1.00  0.00     0.116 A 
ATOM     20  C   UNL     1      33.189   1.618  53.038  1.00  0.00     0.204 A 
ATOM     21  C   UNL     1      34.140   0.976  51.229  1.00  0.00     0.056 A 
ATOM     22  N   UNL     1      34.301   1.711  52.352  1.00  0.00    -0.242 NA
ATOM     23  C   UNL     1      35.199   0.814  50.164  1.00  0.00     0.068 C 
ENDBRANCH  15  18
BRANCH  16  24
ATOM     24  C   UNL     1      29.406  -2.122  55.058  1.00  0.00     0.416 C 
ATOM     25  F   UNL     1      28.792  -3.163  54.463  1.00  0.00    -0.166 F 
ATOM     26  F   UNL     1      30.581  -2.646  55.386  1.00  0.00    -0.166 F 
ATOM     27  F   UNL     1      28.633  -1.876  56.136  1.00  0.00    -0.166 F 
ENDBRANCH  16  24
ENDBRANCH  10  12
ENDBRANCH   1   8
BRANCH   6  28
ATOM     28  N   UNL     1      23.568   4.644  54.022  1.00  0.00    -0.324 N 
ATOM     29  H   UNL     1      22.976   3.990  54.555  1.00  0.00     0.170 HD
BRANCH  28  30
ATOM     30  C   UNL     1      23.795   5.936  54.500  1.00  0.00     0.227 A 
ATOM     31  N   UNL     1      24.796   6.384  55.247  1.00  0.00    -0.221 NA
ATOM     32  N   UNL     1      22.736   6.703  54.132  1.00  0.00    -0.213 NA
ATOM     33  C   UNL     1      24.749   7.680  55.609  1.00  0.00     0.117 A 
ATOM     34  C   UNL     1      22.718   7.976  54.542  1.00  0.00     0.077 A 
ATOM     35  C   UNL     1      23.723   8.484  55.289  1.00  0.00     0.049 A 
BRANCH  34  36
ATOM     36  C   UNL     1      21.557   8.783  54.083  1.00  0.00     0.019 A 
ATOM     37  C   UNL     1      20.249   8.271  54.111  1.00  0.00     0.013 A 
ATOM     38  C   UNL     1      21.743  10.089  53.590  1.00  0.00     0.121 A 
ATOM     39  C   UNL     1      19.206   9.061  53.646  1.00  0.00     0.021 A 
ATOM     40  N   UNL     1      20.742  10.852  53.133  1.00  0.00    -0.264 NA
ATOM     41  C   UNL     1      19.499  10.347  53.195  1.00  0.00     0.111 A 
ENDBRANCH  34  36
ENDBRANCH  28  30
ENDBRANCH   6  28
TORSDOF 7
ENDMDL
MODEL 9
REMARK VINA RESULT:   -10.914      3.426      5.469
REMARK INTER + INTRA:         -14.077
REMARK INTER:                 -13.002
REMARK INTRA:                  -1.075
REMARK CONF_INDEPENDENT:        2.088
REMARK UNBOUND:                -1.075
REMARK SMILES Cc1cn(-c2cc(NC(=O)c3ccc(C)c(Nc4nccc(-c5cccnc5)n4)c3)cc(C(F)(F)F)c2)cn1
REMARK SMILES IDX 11 1 12 2 13 3 14 4 15 5 16 6 30 7 9 8 10 9 8 10 7 12 6 13
REMARK SMILES IDX 31 14 5 15 32 16 37 17 4 18 3 19 38 20 2 21 39 22 1 23 33 24
REMARK SMILES IDX 34 25 35 26 36 27 17 28 18 30 19 31 29 32 20 33 22 34 21 35
REMARK SMILES IDX 23 36 24 37 28 38 25 39 27 40 26 41
REMARK H PARENT 8 11 17 29
ROOT
ATOM      1  C   UNL     1      27.517   2.112  52.432  1.00  0.00     0.042 A 
ATOM      2  C   UNL     1      27.795   0.966  51.674  1.00  0.00     0.014 A 
ATOM      3  C   UNL     1      28.772   0.051  52.069  1.00  0.00     0.006 A 
ATOM      4  C   UNL     1      29.564   0.283  53.182  1.00  0.00    -0.027 A 
ATOM      5  C   UNL     1      30.632  -0.719  53.598  1.00  0.00     0.046 C 
ATOM      6  C   UNL     1      29.363   1.472  53.882  1.00  0.00     0.045 A 
ATOM      7  C   UNL     1      28.360   2.365  53.483  1.00  0.00     0.040 A 
ENDROOT
BRANCH   1   8
ATOM      8  C   UNL     1      26.595   3.190  52.024  1.00  0.00     0.255 C 
ATOM      9  O   UNL     1      26.485   3.356  50.834  1.00  0.00    -0.269 OA
ATOM     10  N   UNL     1      25.803   3.687  52.987  1.00  0.00    -0.322 N 
ATOM     11  H   UNL     1      25.945   3.328  53.941  1.00  0.00     0.170 HD
BRANCH  10  12
ATOM     12  C   UNL     1      24.808   4.642  52.813  1.00  0.00     0.044 A 
ATOM     13  C   UNL     1      24.055   5.115  53.916  1.00  0.00     0.052 A 
ATOM     14  C   UNL     1      24.444   5.072  51.519  1.00  0.00     0.039 A 
ATOM     15  C   UNL     1      23.060   6.083  53.753  1.00  0.00     0.049 A 
ATOM     16  C   UNL     1      23.445   6.074  51.357  1.00  0.00     0.060 A 
ATOM     17  C   UNL     1      22.747   6.536  52.475  1.00  0.00     0.039 A 
BRANCH  15  18
ATOM     18  N   UNL     1      22.337   6.589  54.844  1.00  0.00    -0.306 N 
ATOM     19  C   UNL     1      22.668   6.572  56.197  1.00  0.00     0.116 A 
ATOM     20  C   UNL     1      21.110   7.123  54.813  1.00  0.00     0.204 A 
ATOM     21  C   UNL     1      21.634   7.096  56.891  1.00  0.00     0.056 A 
ATOM     22  N   UNL     1      20.683   7.464  56.005  1.00  0.00    -0.242 NA
ATOM     23  C   UNL     1      21.528   7.307  58.382  1.00  0.00     0.068 C 
ENDBRANCH  15  18
BRANCH  16  24
ATOM     24  C   UNL     1      23.122   6.555  49.980  1.00  0.00     0.416 C 
ATOM     25  F   UNL     1      21.951   6.112  49.482  1.00  0.00    -0.166 F 
ATOM     26  F   UNL     1      22.948   7.871  49.962  1.00  0.00    -0.166 F 
ATOM     27  F   UNL     1      24.026   6.143  49.067  1.00  0.00    -0.166 F 
ENDBRANCH  16  24
ENDBRANCH  10  12
ENDBRANCH   1   8
BRANCH   6  28
ATOM     28  N   UNL     1      30.035   1.652  55.098  1.00  0.00    -0.324 N 
ATOM     29  H   UNL     1      29.706   1.175  55.948  1.00  0.00     0.170 HD
BRANCH  28  30
ATOM     30  C   UNL     1      31.155   2.485  55.147  1.00  0.00     0.227 A 
ATOM     31  N   UNL     1      32.039   2.748  54.192  1.00  0.00    -0.221 NA
ATOM     32  N   UNL     1      31.262   2.957  56.415  1.00  0.00    -0.213 NA
ATOM     33  C   UNL     1      33.061   3.561  54.521  1.00  0.00     0.117 A 
ATOM     34  C   UNL     1      32.312   3.735  56.702  1.00  0.00     0.077 A 
ATOM     35  C   UNL     1      33.229   4.047  55.761  1.00  0.00     0.049 A 
BRANCH  34  36
ATOM     36  C   UNL     1      32.364   4.255  58.094  1.00  0.00     0.019 A 
ATOM     37  C   UNL     1      32.024   5.584  58.396  1.00  0.00     0.013 A 
ATOM     38  C   UNL     1      32.775   3.423  59.154  1.00  0.00     0.121 A 
ATOM     39  C   UNL     1      32.116   6.022  59.711  1.00  0.00     0.021 A 
ATOM     40  N   UNL     1      32.873   3.842  60.422  1.00  0.00    -0.264 NA
ATOM     41  C   UNL     1      32.518   5.110  60.686  1.00  0.00     0.111 A 
ENDBRANCH  34  36
ENDBRANCH  28  30
ENDBRANCH   6  28
TORSDOF 7
ENDMDL
MODEL 10
REMARK VINA RESULT:   -10.912      3.579     12.102
REMARK INTER + INTRA:         -14.333
REMARK INTER:                 -13.000
REMARK INTRA:                  -1.333
REMARK CONF_INDEPENDENT:        2.088
REMARK UNBOUND:                -1.333
REMARK SMILES Cc1cn(-c2cc(NC(=O)c3ccc(C)c(Nc4nccc(-c5cccnc5)n4)c3)cc(C(F)(F)F)c2)cn1
REMARK SMILES IDX 11 1 12 2 13 3 14 4 15 5 16 6 30 7 9 8 10 9 8 10 7 12 6 13
REMARK SMILES IDX 31 14 5 15 32 16 37 17 4 18 3 19 38 20 2 21 39 22 1 23 33 24
REMARK SMILES IDX 34 25 35 26 36 27 17 28 18 30 19 31 29 32 20 33 22 34 21 35
REMARK SMILES IDX 23 36 24 37 28 38 25 39 27 40 26 41
REMARK H PARENT 8 11 17 29
ROOT
ATOM      1  C   UNL     1      25.558   3.731  51.847  1.00  0.00     0.042 A 
ATOM      2  C   UNL     1      24.784   3.868  50.685  1.00  0.00     0.014 A 
ATOM      3  C   UNL     1      23.445   4.255  50.746  1.00  0.00     0.006 A 
ATOM      4  C   UNL     1      22.804   4.439  51.960  1.00  0.00    -0.027 A 
ATOM      5  C   UNL     1      21.340   4.854  52.012  1.00  0.00     0.046 C 
ATOM      6  C   UNL     1      23.540   4.203  53.121  1.00  0.00     0.045 A 
ATOM      7  C   UNL     1      24.890   3.839  53.039  1.00  0.00     0.040 A 
ENDROOT
BRANCH   1   8
ATOM      8  C   UNL     1      26.938   3.206  51.884  1.00  0.00     0.255 C 
ATOM      9  O   UNL     1      27.520   3.202  50.827  1.00  0.00    -0.269 OA
ATOM     10  N   UNL     1      27.472   3.032  53.103  1.00  0.00    -0.322 N 
ATOM     11  H   UNL     1      26.860   3.213  53.911  1.00  0.00     0.170 HD
BRANCH  10  12
ATOM     12  C   UNL     1      28.774   2.630  53.373  1.00  0.00     0.044 A 
ATOM     13  C   UNL     1      29.404   1.633  52.589  1.00  0.00     0.052 A 
ATOM     14  C   UNL     1      29.455   3.119  54.509  1.00  0.00     0.039 A 
ATOM     15  C   UNL     1      30.717   1.229  52.847  1.00  0.00     0.049 A 
ATOM     16  C   UNL     1      30.800   2.723  54.757  1.00  0.00     0.060 A 
ATOM     17  C   UNL     1      31.395   1.759  53.940  1.00  0.00     0.039 A 
BRANCH  15  18
ATOM     18  N   UNL     1      31.365   0.272  52.051  1.00  0.00    -0.306 N 
ATOM     19  C   UNL     1      32.731   0.039  51.899  1.00  0.00     0.116 A 
ATOM     20  C   UNL     1      30.791  -0.571  51.184  1.00  0.00     0.204 A 
ATOM     21  C   UNL     1      32.893  -0.923  50.965  1.00  0.00     0.056 A 
ATOM     22  N   UNL     1      31.667  -1.314  50.553  1.00  0.00    -0.242 NA
ATOM     23  C   UNL     1      34.185  -1.529  50.471  1.00  0.00     0.068 C 
ENDBRANCH  15  18
BRANCH  16  24
ATOM     24  C   UNL     1      31.518   3.303  55.933  1.00  0.00     0.416 C 
ATOM     25  F   UNL     1      31.650   2.472  56.986  1.00  0.00    -0.166 F 
ATOM     26  F   UNL     1      32.783   3.572  55.634  1.00  0.00    -0.166 F 
ATOM     27  F   UNL     1      30.873   4.368  56.453  1.00  0.00    -0.166 F 
ENDBRANCH  16  24
ENDBRANCH  10  12
ENDBRANCH   1   8
BRANCH   6  28
ATOM     28  N   UNL     1      22.965   4.537  54.354  1.00  0.00    -0.324 N 
ATOM     29  H   UNL     1      22.402   3.846  54.869  1.00  0.00     0.170 HD
BRANCH  28  30
ATOM     30  C   UNL     1      23.163   5.815  54.880  1.00  0.00     0.227 A 
ATOM     31  N   UNL     1      24.067   6.222  55.762  1.00  0.00    -0.221 NA
ATOM     32  N   UNL     1      22.187   6.620  54.385  1.00  0.00    -0.213 NA
ATOM     33  C   UNL     1      24.010   7.514  56.136  1.00  0.00     0.117 A 
ATOM     34  C   UNL     1      22.152   7.888  54.810  1.00  0.00     0.077 A 
ATOM     35  C   UNL     1      23.060   8.354  55.694  1.00  0.00     0.049 A 
BRANCH  34  36
ATOM     36  C   UNL     1      21.087   8.736  54.213  1.00  0.00     0.019 A 
ATOM     37  C   UNL     1      19.727   8.497  54.467  1.00  0.00     0.013 A 
ATOM     38  C   UNL     1      21.420   9.803  53.355  1.00  0.00     0.121 A 
ATOM     39  C   UNL     1      18.775   9.307  53.861  1.00  0.00     0.021 A 
ATOM     40  N   UNL     1      20.506  10.582  52.762  1.00  0.00    -0.264 NA
ATOM     41  C   UNL     1      19.214  10.347  53.043  1.00  0.00     0.111 A 
ENDBRANCH  34  36
ENDBRANCH  28  30
ENDBRANCH   6  28
TORSDOF 7
ENDMDL
MODEL 11
REMARK VINA RESULT:   -10.890      8.398     15.225
REMARK INTER + INTRA:         -14.293
REMARK INTER:                 -12.978
REMARK INTRA:                  -1.315
REMARK CONF_INDEPENDENT:        2.088
REMARK UNBOUND:                -1.315
REMARK SMILES Cc1cn(-c2cc(NC(=O)c3ccc(C)c(Nc4nccc(-c5cccnc5)n4)c3)cc(C(F)(F)F)c2)cn1
REMARK SMILES IDX 11 1 12 2 13 3 14 4 15 5 16 6 30 7 9 8 10 9 8 10 7 12 6 13
REMARK SMILES IDX 31 14 5 15 32 16 37 17 4 18 3 19 38 20 2 21 39 22 1 23 33 24
REMARK SMILES IDX 34 25 35 26 36 27 17 28 18 30 19 31 29 32 20 33 22 34 21 35
REMARK SMILES IDX 23 36 24 37 28 38 25 39 27 40 26 41
REMARK H PARENT 8 11 17 29
ROOT
ATOM      1  C   UNL     1      35.975  -1.640  49.251  1.00  0.00     0.042 A 
ATOM      2  C   UNL     1      35.202  -2.805  49.138  1.00  0.00     0.014 A 
ATOM      3  C   UNL     1      33.829  -2.793  49.387  1.00  0.00     0.006 A 
ATOM      4  C   UNL     1      33.191  -1.649  49.838  1.00  0.00    -0.027 A 
ATOM      5  C   UNL     1      31.694  -1.653  50.114  1.00  0.00     0.046 C 
ATOM      6  C   UNL     1      33.972  -0.515  50.052  1.00  0.00     0.045 A 
ATOM      7  C   UNL     1      35.344  -0.540  49.771  1.00  0.00     0.040 A 
ENDROOT
BRANCH   1   8
ATOM      8  C   UNL     1      37.446  -1.589  49.130  1.00  0.00     0.255 C 
ATOM      9  O   UNL     1      38.027  -1.112  50.074  1.00  0.00    -0.269 OA
ATOM     10  N   UNL     1      37.981  -2.292  48.121  1.00  0.00    -0.322 N 
ATOM     11  H   UNL     1      37.327  -2.755  47.474  1.00  0.00     0.170 HD
BRANCH  10  12
ATOM     12  C   UNL     1      39.338  -2.453  47.868  1.00  0.00     0.044 A 
ATOM     13  C   UNL     1      39.904  -2.028  46.641  1.00  0.00     0.052 A 
ATOM     14  C   UNL     1      40.160  -3.153  48.778  1.00  0.00     0.039 A 
ATOM     15  C   UNL     1      41.270  -2.177  46.382  1.00  0.00     0.049 A 
ATOM     16  C   UNL     1      41.554  -3.284  48.522  1.00  0.00     0.060 A 
ATOM     17  C   UNL     1      42.077  -2.823  47.312  1.00  0.00     0.039 A 
BRANCH  15  18
ATOM     18  N   UNL     1      41.848  -1.721  45.187  1.00  0.00    -0.306 N 
ATOM     19  C   UNL     1      42.150  -0.416  44.803  1.00  0.00     0.116 A 
ATOM     20  C   UNL     1      42.150  -2.457  44.111  1.00  0.00     0.204 A 
ATOM     21  C   UNL     1      42.615  -0.446  43.535  1.00  0.00     0.056 A 
ATOM     22  N   UNL     1      42.638  -1.736  43.132  1.00  0.00    -0.242 NA
ATOM     23  C   UNL     1      43.090   0.712  42.691  1.00  0.00     0.068 C 
ENDBRANCH  15  18
BRANCH  16  24
ATOM     24  C   UNL     1      42.411  -3.976  49.531  1.00  0.00     0.416 C 
ATOM     25  F   UNL     1      42.333  -3.480  50.782  1.00  0.00    -0.166 F 
ATOM     26  F   UNL     1      42.019  -5.232  49.709  1.00  0.00    -0.166 F 
ATOM     27  F   UNL     1      43.725  -3.883  49.239  1.00  0.00    -0.166 F 
ENDBRANCH  16  24
ENDBRANCH  10  12
ENDBRANCH   1   8
BRANCH   6  28
ATOM     28  N   UNL     1      33.328   0.693  50.349  1.00  0.00    -0.324 N 
ATOM     29  H   UNL     1      32.978   1.295  49.590  1.00  0.00     0.170 HD
BRANCH  28  30
ATOM     30  C   UNL     1      33.163   1.073  51.682  1.00  0.00     0.227 A 
ATOM     31  N   UNL     1      33.873   1.939  52.394  1.00  0.00    -0.221 NA
ATOM     32  N   UNL     1      32.155   0.327  52.202  1.00  0.00    -0.213 NA
ATOM     33  C   UNL     1      33.525   2.090  53.686  1.00  0.00     0.117 A 
ATOM     34  C   UNL     1      31.867   0.489  53.499  1.00  0.00     0.077 A 
ATOM     35  C   UNL     1      32.548   1.370  54.261  1.00  0.00     0.049 A 
BRANCH  34  36
ATOM     36  C   UNL     1      30.733  -0.325  54.011  1.00  0.00     0.019 A 
ATOM     37  C   UNL     1      29.669   0.258  54.717  1.00  0.00     0.013 A 
ATOM     38  C   UNL     1      30.705  -1.719  53.811  1.00  0.00     0.121 A 
ATOM     39  C   UNL     1      28.649  -0.555  55.194  1.00  0.00     0.021 A 
ATOM     40  N   UNL     1      29.729  -2.509  54.275  1.00  0.00    -0.264 NA
ATOM     41  C   UNL     1      28.711  -1.922  54.925  1.00  0.00     0.111 A 
ENDBRANCH  34  36
ENDBRANCH  28  30
ENDBRANCH   6  28
TORSDOF 7
ENDMDL
MODEL 12
REMARK VINA RESULT:   -10.888      4.599      7.572
REMARK INTER + INTRA:         -13.765
REMARK INTER:                 -12.977
REMARK INTRA:                  -0.789
REMARK CONF_INDEPENDENT:        2.088
REMARK UNBOUND:                -0.789
REMARK SMILES Cc1cn(-c2cc(NC(=O)c3ccc(C)c(Nc4nccc(-c5cccnc5)n4)c3)cc(C(F)(F)F)c2)cn1
REMARK SMILES IDX 11 1 12 2 13 3 14 4 15 5 16 6 30 7 9 8 10 9 8 10 7 12 6 13
REMARK SMILES IDX 31 14 5 15 32 16 37 17 4 18 3 19 38 20 2 21 39 22 1 23 33 24
REMARK SMILES IDX 34 25 35 26 36 27 17 28 18 30 19 31 29 32 20 33 22 34 21 35
REMARK SMILES IDX 23 36 24 37 28 38 25 39 27 40 26 41
REMARK H PARENT 8 11 17 29
ROOT
ATOM      1  C   UNL     1      23.059   5.954  52.899  1.00  0.00     0.042 A 
ATOM      2  C   UNL     1      22.847   5.801  51.521  1.00  0.00     0.014 A 
ATOM      3  C   UNL     1      23.476   4.787  50.797  1.00  0.00     0.006 A 
ATOM      4  C   UNL     1      24.399   3.943  51.395  1.00  0.00    -0.027 A 
ATOM      5  C   UNL     1      25.083   2.847  50.591  1.00  0.00     0.046 C 
ATOM      6  C   UNL     1      24.691   4.156  52.741  1.00  0.00     0.045 A 
ATOM      7  C   UNL     1      24.030   5.163  53.456  1.00  0.00     0.040 A 
ENDROOT
BRANCH   1   8
ATOM      8  C   UNL     1      22.538   7.069  53.714  1.00  0.00     0.255 C 
ATOM      9  O   UNL     1      23.374   7.768  54.231  1.00  0.00    -0.269 OA
ATOM     10  N   UNL     1      21.228   7.332  53.588  1.00  0.00    -0.322 N 
ATOM     11  H   UNL     1      20.680   6.700  52.989  1.00  0.00     0.170 HD
BRANCH  10  12
ATOM     12  C   UNL     1      20.545   8.381  54.191  1.00  0.00     0.044 A 
ATOM     13  C   UNL     1      19.495   9.049  53.515  1.00  0.00     0.052 A 
ATOM     14  C   UNL     1      20.961   8.882  55.444  1.00  0.00     0.039 A 
ATOM     15  C   UNL     1      18.795  10.098  54.118  1.00  0.00     0.049 A 
ATOM     16  C   UNL     1      20.233   9.936  56.066  1.00  0.00     0.060 A 
ATOM     17  C   UNL     1      19.184  10.547  55.376  1.00  0.00     0.039 A 
BRANCH  15  18
ATOM     18  N   UNL     1      17.726  10.739  53.473  1.00  0.00    -0.306 N 
ATOM     19  C   UNL     1      16.653  11.430  54.033  1.00  0.00     0.116 A 
ATOM     20  C   UNL     1      17.466  10.738  52.160  1.00  0.00     0.204 A 
ATOM     21  C   UNL     1      15.824  11.803  53.034  1.00  0.00     0.056 A 
ATOM     22  N   UNL     1      16.367  11.389  51.867  1.00  0.00    -0.242 NA
ATOM     23  C   UNL     1      14.540  12.590  53.138  1.00  0.00     0.068 C 
ENDBRANCH  15  18
BRANCH  16  24
ATOM     24  C   UNL     1      20.658  10.406  57.419  1.00  0.00     0.416 C 
ATOM     25  F   UNL     1      19.653  10.612  58.293  1.00  0.00    -0.166 F 
ATOM     26  F   UNL     1      21.379   9.481  58.041  1.00  0.00    -0.166 F 
ATOM     27  F   UNL     1      21.283  11.601  57.373  1.00  0.00    -0.166 F 
ENDBRANCH  16  24
ENDBRANCH  10  12
ENDBRANCH   1   8
BRANCH   6  28
ATOM     28  N   UNL     1      25.493   3.219  53.405  1.00  0.00    -0.324 N 
ATOM     29  H   UNL     1      25.152   2.756  54.259  1.00  0.00     0.170 HD
BRANCH  28  30
ATOM     30  C   UNL     1      26.759   2.918  52.900  1.00  0.00     0.227 A 
ATOM     31  N   UNL     1      27.462   3.562  51.977  1.00  0.00    -0.221 NA
ATOM     32  N   UNL     1      27.164   1.754  53.470  1.00  0.00    -0.213 NA
ATOM     33  C   UNL     1      28.651   3.028  51.638  1.00  0.00     0.117 A 
ATOM     34  C   UNL     1      28.338   1.245  53.078  1.00  0.00     0.077 A 
ATOM     35  C   UNL     1      29.098   1.872  52.155  1.00  0.00     0.049 A 
BRANCH  34  36
ATOM     36  C   UNL     1      28.752  -0.011  53.756  1.00  0.00     0.019 A 
ATOM     37  C   UNL     1      28.080  -0.489  54.893  1.00  0.00     0.013 A 
ATOM     38  C   UNL     1      29.850  -0.753  53.279  1.00  0.00     0.121 A 
ATOM     39  C   UNL     1      28.527  -1.655  55.500  1.00  0.00     0.021 A 
ATOM     40  N   UNL     1      30.290  -1.874  53.865  1.00  0.00    -0.264 NA
ATOM     41  C   UNL     1      29.614  -2.322  54.935  1.00  0.00     0.111 A 
ENDBRANCH  34  36
ENDBRANCH  28  30
ENDBRANCH   6  28
TORSDOF 7
ENDMDL
MODEL 13
REMARK VINA RESULT:   -10.813      4.704     13.538
REMARK INTER + INTRA:         -14.231
REMARK INTER:                 -12.901
REMARK INTRA:                  -1.330
REMARK CONF_INDEPENDENT:        2.088
REMARK UNBOUND:                -1.330
REMARK SMILES Cc1cn(-c2cc(NC(=O)c3ccc(C)c(Nc4nccc(-c5cccnc5)n4)c3)cc(C(F)(F)F)c2)cn1
REMARK SMILES IDX 11 1 12 2 13 3 14 4 15 5 16 6 30 7 9 8 10 9 8 10 7 12 6 13
REMARK SMILES IDX 31 14 5 15 32 16 37 17 4 18 3 19 38 20 2 21 39 22 1 23 33 24
REMARK SMILES IDX 34 25 35 26 36 27 17 28 18 30 19 31 29 32 20 33 22 34 21 35
REMARK SMILES IDX 23 36 24 37 28 38 25 39 27 40 26 41
REMARK H PARENT 8 11 17 29
ROOT
ATOM      1  C   UNL     1      21.112   7.319  54.294  1.00  0.00     0.042 A 
ATOM      2  C   UNL     1      21.000   7.496  55.681  1.00  0.00     0.014 A 
ATOM      3  C   UNL     1      20.270   8.555  56.223  1.00  0.00     0.006 A 
ATOM      4  C   UNL     1      19.697   9.522  55.412  1.00  0.00    -0.027 A 
ATOM      5  C   UNL     1      18.910  10.676  56.017  1.00  0.00     0.046 C 
ATOM      6  C   UNL     1      19.892   9.409  54.036  1.00  0.00     0.045 A 
ATOM      7  C   UNL     1      20.606   8.325  53.511  1.00  0.00     0.040 A 
ENDROOT
BRANCH   1   8
ATOM      8  C   UNL     1      21.963   6.308  53.638  1.00  0.00     0.255 C 
ATOM      9  O   UNL     1      21.919   5.202  54.120  1.00  0.00    -0.269 OA
ATOM     10  N   UNL     1      22.486   6.653  52.452  1.00  0.00    -0.322 N 
ATOM     11  H   UNL     1      22.309   7.613  52.125  1.00  0.00     0.170 HD
BRANCH  10  12
ATOM     12  C   UNL     1      23.244   5.834  51.625  1.00  0.00     0.044 A 
ATOM     13  C   UNL     1      24.337   5.093  52.139  1.00  0.00     0.052 A 
ATOM     14  C   UNL     1      23.018   5.815  50.231  1.00  0.00     0.039 A 
ATOM     15  C   UNL     1      25.099   4.259  51.317  1.00  0.00     0.049 A 
ATOM     16  C   UNL     1      23.782   4.947  49.399  1.00  0.00     0.060 A 
ATOM     17  C   UNL     1      24.831   4.210  49.953  1.00  0.00     0.039 A 
BRANCH  15  18
ATOM     18  N   UNL     1      26.157   3.489  51.824  1.00  0.00    -0.306 N 
ATOM     19  C   UNL     1      26.537   3.289  53.150  1.00  0.00     0.116 A 
ATOM     20  C   UNL     1      27.093   2.847  51.115  1.00  0.00     0.204 A 
ATOM     21  C   UNL     1      27.664   2.544  53.158  1.00  0.00     0.056 A 
ATOM     22  N   UNL     1      27.977   2.250  51.877  1.00  0.00    -0.242 NA
ATOM     23  C   UNL     1      28.443   2.051  54.354  1.00  0.00     0.068 C 
ENDBRANCH  15  18
BRANCH  16  24
ATOM     24  C   UNL     1      23.481   4.902  47.936  1.00  0.00     0.416 C 
ATOM     25  F   UNL     1      24.456   5.383  47.139  1.00  0.00    -0.166 F 
ATOM     26  F   UNL     1      23.371   3.649  47.510  1.00  0.00    -0.166 F 
ATOM     27  F   UNL     1      22.410   5.654  47.609  1.00  0.00    -0.166 F 
ENDBRANCH  16  24
ENDBRANCH  10  12
ENDBRANCH   1   8
BRANCH   6  28
ATOM     28  N   UNL     1      19.189  10.277  53.190  1.00  0.00    -0.324 N 
ATOM     29  H   UNL     1      19.694  10.852  52.501  1.00  0.00     0.170 HD
BRANCH  28  30
ATOM     30  C   UNL     1      17.799  10.356  53.288  1.00  0.00     0.227 A 
ATOM     31  N   UNL     1      17.026  11.434  53.320  1.00  0.00    -0.221 NA
ATOM     32  N   UNL     1      17.324   9.092  53.433  1.00  0.00    -0.213 NA
ATOM     33  C   UNL     1      15.704  11.227  53.466  1.00  0.00     0.117 A 
ATOM     34  C   UNL     1      16.006   8.938  53.607  1.00  0.00     0.077 A 
ATOM     35  C   UNL     1      15.176  10.004  53.628  1.00  0.00     0.049 A 
BRANCH  34  36
ATOM     36  C   UNL     1      15.533   7.535  53.725  1.00  0.00     0.019 A 
ATOM     37  C   UNL     1      14.731   7.117  54.799  1.00  0.00     0.013 A 
ATOM     38  C   UNL     1      15.893   6.575  52.759  1.00  0.00     0.121 A 
ATOM     39  C   UNL     1      14.339   5.786  54.870  1.00  0.00     0.021 A 
ATOM     40  N   UNL     1      15.525   5.289  52.827  1.00  0.00    -0.264 NA
ATOM     41  C   UNL     1      14.737   4.922  53.851  1.00  0.00     0.111 A 
ENDBRANCH  34  36
ENDBRANCH  28  30
ENDBRANCH   6  28
TORSDOF 7
ENDMDL
MODEL 14
REMARK VINA RESULT:   -10.768      4.121     11.200
REMARK INTER + INTRA:         -14.128
REMARK INTER:                 -12.856
REMARK INTRA:                  -1.272
REMARK CONF_INDEPENDENT:        2.088
REMARK UNBOUND:                -1.272
REMARK SMILES Cc1cn(-c2cc(NC(=O)c3ccc(C)c(Nc4nccc(-c5cccnc5)n4)c3)cc(C(F)(F)F)c2)cn1
REMARK SMILES IDX 11 1 12 2 13 3 14 4 15 5 16 6 30 7 9 8 10 9 8 10 7 12 6 13
REMARK SMILES IDX 31 14 5 15 32 16 37 17 4 18 3 19 38 20 2 21 39 22 1 23 33 24
REMARK SMILES IDX 34 25 35 26 36 27 17 28 18 30 19 31 29 32 20 33 22 34 21 35
REMARK SMILES IDX 23 36 24 37 28 38 25 39 27 40 26 41
REMARK H PARENT 8 11 17 29
ROOT
ATOM      1  C   UNL     1      25.628   3.698  51.878  1.00  0.00     0.042 A 
ATOM      2  C   UNL     1      24.838   3.750  50.720  1.00  0.00     0.014 A 
ATOM      3  C   UNL     1      23.503   4.152  50.768  1.00  0.00     0.006 A 
ATOM      4  C   UNL     1      22.881   4.437  51.974  1.00  0.00    -0.027 A 
ATOM      5  C   UNL     1      21.422   4.867  52.012  1.00  0.00     0.046 C 
ATOM      6  C   UNL     1      23.632   4.287  53.139  1.00  0.00     0.045 A 
ATOM      7  C   UNL     1      24.978   3.906  53.067  1.00  0.00     0.040 A 
ENDROOT
BRANCH   1   8
ATOM      8  C   UNL     1      27.004   3.165  51.937  1.00  0.00     0.255 C 
ATOM      9  O   UNL     1      27.584   3.110  50.881  1.00  0.00    -0.269 OA
ATOM     10  N   UNL     1      27.538   3.043  53.162  1.00  0.00    -0.322 N 
ATOM     11  H   UNL     1      26.930   3.265  53.962  1.00  0.00     0.170 HD
BRANCH  10  12
ATOM     12  C   UNL     1      28.838   2.644  53.448  1.00  0.00     0.044 A 
ATOM     13  C   UNL     1      29.482   1.651  52.670  1.00  0.00     0.052 A 
ATOM     14  C   UNL     1      29.502   3.133  54.595  1.00  0.00     0.039 A 
ATOM     15  C   UNL     1      30.793   1.251  52.945  1.00  0.00     0.049 A 
ATOM     16  C   UNL     1      30.845   2.740  54.860  1.00  0.00     0.060 A 
ATOM     17  C   UNL     1      31.454   1.780  54.049  1.00  0.00     0.039 A 
BRANCH  15  18
ATOM     18  N   UNL     1      31.454   0.299  52.155  1.00  0.00    -0.306 N 
ATOM     19  C   UNL     1      31.073  -0.237  50.926  1.00  0.00     0.116 A 
ATOM     20  C   UNL     1      32.568  -0.372  52.472  1.00  0.00     0.204 A 
ATOM     21  C   UNL     1      31.973  -1.183  50.580  1.00  0.00     0.056 A 
ATOM     22  N   UNL     1      32.918  -1.230  51.545  1.00  0.00    -0.242 NA
ATOM     23  C   UNL     1      31.999  -2.028  49.329  1.00  0.00     0.068 C 
ENDBRANCH  15  18
BRANCH  16  24
ATOM     24  C   UNL     1      31.545   3.319  56.046  1.00  0.00     0.416 C 
ATOM     25  F   UNL     1      31.650   2.491  57.105  1.00  0.00    -0.166 F 
ATOM     26  F   UNL     1      32.819   3.575  55.771  1.00  0.00    -0.166 F 
ATOM     27  F   UNL     1      30.900   4.392  56.550  1.00  0.00    -0.166 F 
ENDBRANCH  16  24
ENDBRANCH  10  12
ENDBRANCH   1   8
BRANCH   6  28
ATOM     28  N   UNL     1      23.079   4.723  54.349  1.00  0.00    -0.324 N 
ATOM     29  H   UNL     1      22.491   4.089  54.910  1.00  0.00     0.170 HD
BRANCH  28  30
ATOM     30  C   UNL     1      23.330   6.023  54.790  1.00  0.00     0.227 A 
ATOM     31  N   UNL     1      23.019   7.175  54.208  1.00  0.00    -0.221 NA
ATOM     32  N   UNL     1      24.050   5.937  55.938  1.00  0.00    -0.213 NA
ATOM     33  C   UNL     1      23.422   8.297  54.833  1.00  0.00     0.117 A 
ATOM     34  C   UNL     1      24.455   7.079  56.505  1.00  0.00     0.077 A 
ATOM     35  C   UNL     1      24.150   8.276  55.960  1.00  0.00     0.049 A 
BRANCH  34  36
ATOM     36  C   UNL     1      25.210   6.932  57.777  1.00  0.00     0.019 A 
ATOM     37  C   UNL     1      24.574   7.028  59.025  1.00  0.00     0.013 A 
ATOM     38  C   UNL     1      26.601   6.706  57.762  1.00  0.00     0.121 A 
ATOM     39  C   UNL     1      25.335   6.908  60.181  1.00  0.00     0.021 A 
ATOM     40  N   UNL     1      27.340   6.597  58.873  1.00  0.00    -0.264 NA
ATOM     41  C   UNL     1      26.702   6.667  60.053  1.00  0.00     0.111 A 
ENDBRANCH  34  36
ENDBRANCH  28  30
ENDBRANCH   6  28
TORSDOF 7
ENDMDL
MODEL 15
REMARK VINA RESULT:   -10.728      6.728     14.709
REMARK INTER + INTRA:         -13.795
REMARK INTER:                 -12.816
REMARK INTRA:                  -0.979
REMARK CONF_INDEPENDENT:        2.088
REMARK UNBOUND:                -0.979
REMARK SMILES Cc1cn(-c2cc(NC(=O)c3ccc(C)c(Nc4nccc(-c5cccnc5)n4)c3)cc(C(F)(F)F)c2)cn1
REMARK SMILES IDX 11 1 12 2 13 3 14 4 15 5 16 6 30 7 9 8 10 9 8 10 7 12 6 13
REMARK SMILES IDX 31 14 5 15 32 16 37 17 4 18 3 19 38 20 2 21 39 22 1 23 33 24
REMARK SMILES IDX 34 25 35 26 36 27 17 28 18 30 19 31 29 32 20 33 22 34 21 35
REMARK SMILES IDX 23 36 24 37 28 38 25 39 27 40 26 41
REMARK H PARENT 8 11 17 29
ROOT
ATOM      1  C   UNL     1      35.615  -1.241  49.712  1.00  0.00     0.042 A 
ATOM      2  C   UNL     1      34.826  -2.165  49.011  1.00  0.00     0.014 A 
ATOM      3  C   UNL     1      33.434  -2.151  49.105  1.00  0.00     0.006 A 
ATOM      4  C   UNL     1      32.780  -1.278  49.960  1.00  0.00    -0.027 A 
ATOM      5  C   UNL     1      31.262  -1.279  50.059  1.00  0.00     0.046 C 
ATOM      6  C   UNL     1      33.565  -0.427  50.738  1.00  0.00     0.045 A 
ATOM      7  C   UNL     1      34.959  -0.440  50.610  1.00  0.00     0.040 A 
ENDROOT
BRANCH   1   8
ATOM      8  C   UNL     1      37.090  -1.264  49.770  1.00  0.00     0.255 C 
ATOM      9  O   UNL     1      37.579  -0.759  50.751  1.00  0.00    -0.269 OA
ATOM     10  N   UNL     1      37.705  -2.050  48.873  1.00  0.00    -0.322 N 
ATOM     11  H   UNL     1      37.109  -2.520  48.177  1.00  0.00     0.170 HD
BRANCH  10  12
ATOM     12  C   UNL     1      39.072  -2.287  48.798  1.00  0.00     0.044 A 
ATOM     13  C   UNL     1      39.857  -2.394  49.972  1.00  0.00     0.052 A 
ATOM     14  C   UNL     1      39.729  -2.307  47.548  1.00  0.00     0.039 A 
ATOM     15  C   UNL     1      41.231  -2.642  49.907  1.00  0.00     0.049 A 
ATOM     16  C   UNL     1      41.125  -2.583  47.483  1.00  0.00     0.060 A 
ATOM     17  C   UNL     1      41.856  -2.711  48.666  1.00  0.00     0.039 A 
BRANCH  15  18
ATOM     18  N   UNL     1      42.010  -2.791  51.064  1.00  0.00    -0.306 N 
ATOM     19  C   UNL     1      41.956  -3.791  52.033  1.00  0.00     0.116 A 
ATOM     20  C   UNL     1      42.925  -1.933  51.530  1.00  0.00     0.204 A 
ATOM     21  C   UNL     1      42.835  -3.479  53.011  1.00  0.00     0.056 A 
ATOM     22  N   UNL     1      43.454  -2.330  52.661  1.00  0.00    -0.242 NA
ATOM     23  C   UNL     1      43.150  -4.264  54.262  1.00  0.00     0.068 C 
ENDBRANCH  15  18
BRANCH  16  24
ATOM     24  C   UNL     1      41.784  -2.658  46.144  1.00  0.00     0.416 C 
ATOM     25  F   UNL     1      41.192  -1.930  45.176  1.00  0.00    -0.166 F 
ATOM     26  F   UNL     1      43.001  -2.129  46.180  1.00  0.00    -0.166 F 
ATOM     27  F   UNL     1      41.781  -3.910  45.640  1.00  0.00    -0.166 F 
ENDBRANCH  16  24
ENDBRANCH  10  12
ENDBRANCH   1   8
BRANCH   6  28
ATOM     28  N   UNL     1      32.926   0.571  51.485  1.00  0.00    -0.324 N 
ATOM     29  H   UNL     1      33.175   1.561  51.349  1.00  0.00     0.170 HD
BRANCH  28  30
ATOM     30  C   UNL     1      31.949   0.213  52.416  1.00  0.00     0.227 A 
ATOM     31  N   UNL     1      31.994  -0.729  53.350  1.00  0.00    -0.221 NA
ATOM     32  N   UNL     1      30.845   0.963  52.164  1.00  0.00    -0.213 NA
ATOM     33  C   UNL     1      30.884  -0.897  54.094  1.00  0.00     0.117 A 
ATOM     34  C   UNL     1      29.757   0.737  52.908  1.00  0.00     0.077 A 
ATOM     35  C   UNL     1      29.759  -0.197  53.883  1.00  0.00     0.049 A 
BRANCH  34  36
ATOM     36  C   UNL     1      28.588   1.608  52.617  1.00  0.00     0.019 A 
ATOM     37  C   UNL     1      27.480   1.664  53.477  1.00  0.00     0.013 A 
ATOM     38  C   UNL     1      28.556   2.396  51.449  1.00  0.00     0.121 A 
ATOM     39  C   UNL     1      26.404   2.476  53.141  1.00  0.00     0.021 A 
ATOM     40  N   UNL     1      27.519   3.175  51.116  1.00  0.00    -0.264 NA
ATOM     41  C   UNL     1      26.483   3.229  51.970  1.00  0.00     0.111 A 
ENDBRANCH  34  36
ENDBRANCH  28  30
ENDBRANCH   6  28
TORSDOF 7
ENDMDL
MODEL 16
REMARK VINA RESULT:   -10.543      8.261     14.881
REMARK INTER + INTRA:         -13.982
REMARK INTER:                 -12.631
REMARK INTRA:                  -1.352
REMARK CONF_INDEPENDENT:        2.088
REMARK UNBOUND:                -1.352
REMARK SMILES Cc1cn(-c2cc(NC(=O)c3ccc(C)c(Nc4nccc(-c5cccnc5)n4)c3)cc(C(F)(F)F)c2)cn1
REMARK SMILES IDX 11 1 12 2 13 3 14 4 15 5 16 6 30 7 9 8 10 9 8 10 7 12 6 13
REMARK SMILES IDX 31 14 5 15 32 16 37 17 4 18 3 19 38 20 2 21 39 22 1 23 33 24
REMARK SMILES IDX 34 25 35 26 36 27 17 28 18 30 19 31 29 32 20 33 22 34 21 35
REMARK SMILES IDX 23 36 24 37 28 38 25 39 27 40 26 41
REMARK H PARENT 8 11 17 29
ROOT
ATOM      1  C   UNL     1      36.073  -1.551  49.374  1.00  0.00     0.042 A 
ATOM      2  C   UNL     1      35.394  -2.767  49.207  1.00  0.00     0.014 A 
ATOM      3  C   UNL     1      34.013  -2.860  49.386  1.00  0.00     0.006 A 
ATOM      4  C   UNL     1      33.270  -1.772  49.816  1.00  0.00    -0.027 A 
ATOM      5  C   UNL     1      31.766  -1.889  50.014  1.00  0.00     0.046 C 
ATOM      6  C   UNL     1      33.955  -0.588  50.084  1.00  0.00     0.045 A 
ATOM      7  C   UNL     1      35.337  -0.509  49.874  1.00  0.00     0.040 A 
ENDROOT
BRANCH   1   8
ATOM      8  C   UNL     1      37.540  -1.391  49.330  1.00  0.00     0.255 C 
ATOM      9  O   UNL     1      37.964  -0.368  49.811  1.00  0.00    -0.269 OA
ATOM     10  N   UNL     1      38.245  -2.484  49.001  1.00  0.00    -0.322 N 
ATOM     11  H   UNL     1      37.710  -3.324  48.741  1.00  0.00     0.170 HD
BRANCH  10  12
ATOM     12  C   UNL     1      39.630  -2.585  48.977  1.00  0.00     0.044 A 
ATOM     13  C   UNL     1      40.381  -2.564  50.179  1.00  0.00     0.052 A 
ATOM     14  C   UNL     1      40.329  -2.589  47.751  1.00  0.00     0.039 A 
ATOM     15  C   UNL     1      41.774  -2.675  50.166  1.00  0.00     0.049 A 
ATOM     16  C   UNL     1      41.747  -2.724  47.740  1.00  0.00     0.060 A 
ATOM     17  C   UNL     1      42.446  -2.730  48.950  1.00  0.00     0.039 A 
BRANCH  15  18
ATOM     18  N   UNL     1      42.523  -2.698  51.352  1.00  0.00    -0.306 N 
ATOM     19  C   UNL     1      42.543  -3.663  52.358  1.00  0.00     0.116 A 
ATOM     20  C   UNL     1      43.323  -1.729  51.813  1.00  0.00     0.204 A 
ATOM     21  C   UNL     1      43.348  -3.223  53.349  1.00  0.00     0.056 A 
ATOM     22  N   UNL     1      43.852  -2.027  52.975  1.00  0.00    -0.242 NA
ATOM     23  C   UNL     1      43.701  -3.924  54.639  1.00  0.00     0.068 C 
ENDBRANCH  15  18
BRANCH  16  24
ATOM     24  C   UNL     1      42.456  -2.786  46.427  1.00  0.00     0.416 C 
ATOM     25  F   UNL     1      42.178  -1.775  45.581  1.00  0.00    -0.166 F 
ATOM     26  F   UNL     1      43.768  -2.659  46.586  1.00  0.00    -0.166 F 
ATOM     27  F   UNL     1      42.128  -3.887  45.718  1.00  0.00    -0.166 F 
ENDBRANCH  16  24
ENDBRANCH  10  12
ENDBRANCH   1   8
BRANCH   6  28
ATOM     28  N   UNL     1      33.209   0.565  50.362  1.00  0.00    -0.324 N 
ATOM     29  H   UNL     1      32.786   1.107  49.596  1.00  0.00     0.170 HD
BRANCH  28  30
ATOM     30  C   UNL     1      33.043   0.973  51.687  1.00  0.00     0.227 A 
ATOM     31  N   UNL     1      33.743   1.863  52.378  1.00  0.00    -0.221 NA
ATOM     32  N   UNL     1      32.046   0.224  52.226  1.00  0.00    -0.213 NA
ATOM     33  C   UNL     1      33.396   2.037  53.668  1.00  0.00     0.117 A 
ATOM     34  C   UNL     1      31.759   0.410  53.520  1.00  0.00     0.077 A 
ATOM     35  C   UNL     1      32.431   1.317  54.261  1.00  0.00     0.049 A 
BRANCH  34  36
ATOM     36  C   UNL     1      30.638  -0.407  54.053  1.00  0.00     0.019 A 
ATOM     37  C   UNL     1      29.567   0.178  54.748  1.00  0.00     0.013 A 
ATOM     38  C   UNL     1      30.630  -1.806  53.886  1.00  0.00     0.121 A 
ATOM     39  C   UNL     1      28.559  -0.639  55.245  1.00  0.00     0.021 A 
ATOM     40  N   UNL     1      29.666  -2.599  54.371  1.00  0.00    -0.264 NA
ATOM     41  C   UNL     1      28.640  -2.010  55.008  1.00  0.00     0.111 A 
ENDBRANCH  34  36
ENDBRANCH  28  30
ENDBRANCH   6  28
TORSDOF 7
ENDMDL
MODEL 17
REMARK VINA RESULT:   -10.468      5.765     10.936
REMARK INTER + INTRA:         -13.709
REMARK INTER:                 -12.557
REMARK INTRA:                  -1.153
REMARK CONF_INDEPENDENT:        2.088
REMARK UNBOUND:                -1.153
REMARK SMILES Cc1cn(-c2cc(NC(=O)c3ccc(C)c(Nc4nccc(-c5cccnc5)n4)c3)cc(C(F)(F)F)c2)cn1
REMARK SMILES IDX 11 1 12 2 13 3 14 4 15 5 16 6 30 7 9 8 10 9 8 10 7 12 6 13
REMARK SMILES IDX 31 14 5 15 32 16 37 17 4 18 3 19 38 20 2 21 39 22 1 23 33 24
REMARK SMILES IDX 34 25 35 26 36 27 17 28 18 30 19 31 29 32 20 33 22 34 21 35
REMARK SMILES IDX 23 36 24 37 28 38 25 39 27 40 26 41
REMARK H PARENT 8 11 17 29
ROOT
ATOM      1  C   UNL     1      22.416   6.427  55.281  1.00  0.00     0.042 A 
ATOM      2  C   UNL     1      21.711   7.556  54.840  1.00  0.00     0.014 A 
ATOM      3  C   UNL     1      21.214   8.501  55.740  1.00  0.00     0.006 A 
ATOM      4  C   UNL     1      21.327   8.317  57.109  1.00  0.00    -0.027 A 
ATOM      5  C   UNL     1      20.774   9.352  58.078  1.00  0.00     0.046 C 
ATOM      6  C   UNL     1      21.936   7.146  57.556  1.00  0.00     0.045 A 
ATOM      7  C   UNL     1      22.449   6.222  56.636  1.00  0.00     0.040 A 
ENDROOT
BRANCH   1   8
ATOM      8  C   UNL     1      22.863   5.319  54.414  1.00  0.00     0.255 C 
ATOM      9  O   UNL     1      22.047   4.450  54.221  1.00  0.00    -0.269 OA
ATOM     10  N   UNL     1      24.007   5.518  53.742  1.00  0.00    -0.322 N 
ATOM     11  H   UNL     1      24.516   6.392  53.934  1.00  0.00     0.170 HD
BRANCH  10  12
ATOM     12  C   UNL     1      24.569   4.651  52.813  1.00  0.00     0.044 A 
ATOM     13  C   UNL     1      23.819   4.192  51.701  1.00  0.00     0.052 A 
ATOM     14  C   UNL     1      25.858   4.114  53.020  1.00  0.00     0.039 A 
ATOM     15  C   UNL     1      24.379   3.328  50.756  1.00  0.00     0.049 A 
ATOM     16  C   UNL     1      26.434   3.252  52.044  1.00  0.00     0.060 A 
ATOM     17  C   UNL     1      25.670   2.848  50.946  1.00  0.00     0.039 A 
BRANCH  15  18
ATOM     18  N   UNL     1      23.659   2.901  49.629  1.00  0.00    -0.306 N 
ATOM     19  C   UNL     1      22.853   1.774  49.481  1.00  0.00     0.116 A 
ATOM     20  C   UNL     1      23.675   3.455  48.411  1.00  0.00     0.204 A 
ATOM     21  C   UNL     1      22.433   1.721  48.198  1.00  0.00     0.056 A 
ATOM     22  N   UNL     1      22.932   2.800  47.553  1.00  0.00    -0.242 NA
ATOM     23  C   UNL     1      21.526   0.698  47.559  1.00  0.00     0.068 C 
ENDBRANCH  15  18
BRANCH  16  24
ATOM     24  C   UNL     1      27.824   2.746  52.258  1.00  0.00     0.416 C 
ATOM     25  F   UNL     1      27.957   1.406  52.204  1.00  0.00    -0.166 F 
ATOM     26  F   UNL     1      28.632   3.142  51.282  1.00  0.00    -0.166 F 
ATOM     27  F   UNL     1      28.300   3.058  53.481  1.00  0.00    -0.166 F 
ENDBRANCH  16  24
ENDBRANCH  10  12
ENDBRANCH   1   8
BRANCH   6  28
ATOM     28  N   UNL     1      22.206   7.015  58.924  1.00  0.00    -0.324 N 
ATOM     29  H   UNL     1      21.660   6.359  59.500  1.00  0.00     0.170 HD
BRANCH  28  30
ATOM     30  C   UNL     1      23.221   7.781  59.500  1.00  0.00     0.227 A 
ATOM     31  N   UNL     1      23.387   9.097  59.475  1.00  0.00    -0.221 NA
ATOM     32  N   UNL     1      24.114   6.925  60.062  1.00  0.00    -0.213 NA
ATOM     33  C   UNL     1      24.489   9.580  60.080  1.00  0.00     0.117 A 
ATOM     34  C   UNL     1      25.209   7.450  60.623  1.00  0.00     0.077 A 
ATOM     35  C   UNL     1      25.415   8.785  60.639  1.00  0.00     0.049 A 
BRANCH  34  36
ATOM     36  C   UNL     1      26.137   6.476  61.254  1.00  0.00     0.019 A 
ATOM     37  C   UNL     1      26.532   6.599  62.596  1.00  0.00     0.013 A 
ATOM     38  C   UNL     1      26.661   5.401  60.509  1.00  0.00     0.121 A 
ATOM     39  C   UNL     1      27.421   5.673  63.126  1.00  0.00     0.021 A 
ATOM     40  N   UNL     1      27.525   4.510  61.012  1.00  0.00    -0.264 NA
ATOM     41  C   UNL     1      27.865   4.637  62.305  1.00  0.00     0.111 A 
ENDBRANCH  34  36
ENDBRANCH  28  30
ENDBRANCH   6  28
TORSDOF 7
ENDMDL
MODEL 18
REMARK VINA RESULT:   -10.389      5.256      8.116
REMARK INTER + INTRA:         -13.674
REMARK INTER:                 -12.477
REMARK INTRA:                  -1.196
REMARK CONF_INDEPENDENT:        2.088
REMARK UNBOUND:                -1.196
REMARK SMILES Cc1cn(-c2cc(NC(=O)c3ccc(C)c(Nc4nccc(-c5cccnc5)n4)c3)cc(C(F)(F)F)c2)cn1
REMARK SMILES IDX 11 1 12 2 13 3 14 4 15 5 16 6 30 7 9 8 10 9 8 10 7 12 6 13
REMARK SMILES IDX 31 14 5 15 32 16 37 17 4 18 3 19 38 20 2 21 39 22 1 23 33 24
REMARK SMILES IDX 34 25 35 26 36 27 17 28 18 30 19 31 29 32 20 33 22 34 21 35
REMARK SMILES IDX 23 36 24 37 28 38 25 39 27 40 26 41
REMARK H PARENT 8 11 17 29
ROOT
ATOM      1  C   UNL     1      24.542   5.897  54.208  1.00  0.00     0.042 A 
ATOM      2  C   UNL     1      23.918   6.621  53.182  1.00  0.00     0.014 A 
ATOM      3  C   UNL     1      23.772   6.088  51.900  1.00  0.00     0.006 A 
ATOM      4  C   UNL     1      24.313   4.855  51.569  1.00  0.00    -0.027 A 
ATOM      5  C   UNL     1      24.154   4.289  50.166  1.00  0.00     0.046 C 
ATOM      6  C   UNL     1      25.025   4.176  52.557  1.00  0.00     0.045 A 
ATOM      7  C   UNL     1      25.138   4.718  53.844  1.00  0.00     0.040 A 
ENDROOT
BRANCH   1   8
ATOM      8  C   UNL     1      24.850   6.431  55.550  1.00  0.00     0.255 C 
ATOM      9  O   UNL     1      25.918   6.984  55.655  1.00  0.00    -0.269 OA
ATOM     10  N   UNL     1      23.830   6.469  56.420  1.00  0.00    -0.322 N 
ATOM     11  H   UNL     1      22.935   6.065  56.109  1.00  0.00     0.170 HD
BRANCH  10  12
ATOM     12  C   UNL     1      23.870   7.003  57.701  1.00  0.00     0.044 A 
ATOM     13  C   UNL     1      24.841   6.572  58.639  1.00  0.00     0.052 A 
ATOM     14  C   UNL     1      22.870   7.900  58.137  1.00  0.00     0.039 A 
ATOM     15  C   UNL     1      24.896   7.111  59.927  1.00  0.00     0.049 A 
ATOM     16  C   UNL     1      22.941   8.464  59.442  1.00  0.00     0.060 A 
ATOM     17  C   UNL     1      23.933   8.033  60.325  1.00  0.00     0.039 A 
BRANCH  15  18
ATOM     18  N   UNL     1      25.879   6.722  60.849  1.00  0.00    -0.306 N 
ATOM     19  C   UNL     1      26.073   5.480  61.451  1.00  0.00     0.116 A 
ATOM     20  C   UNL     1      26.798   7.509  61.421  1.00  0.00     0.204 A 
ATOM     21  C   UNL     1      27.088   5.592  62.334  1.00  0.00     0.056 A 
ATOM     22  N   UNL     1      27.550   6.861  62.277  1.00  0.00    -0.242 NA
ATOM     23  C   UNL     1      27.679   4.516  63.213  1.00  0.00     0.068 C 
ENDBRANCH  15  18
BRANCH  16  24
ATOM     24  C   UNL     1      21.903   9.456  59.856  1.00  0.00     0.416 C 
ATOM     25  F   UNL     1      21.024   9.011  60.777  1.00  0.00    -0.166 F 
ATOM     26  F   UNL     1      22.454  10.491  60.480  1.00  0.00    -0.166 F 
ATOM     27  F   UNL     1      21.115   9.834  58.828  1.00  0.00    -0.166 F 
ENDBRANCH  16  24
ENDBRANCH  10  12
ENDBRANCH   1   8
BRANCH   6  28
ATOM     28  N   UNL     1      25.439   2.864  52.297  1.00  0.00    -0.324 N 
ATOM     29  H   UNL     1      24.751   2.098  52.269  1.00  0.00     0.170 HD
BRANCH  28  30
ATOM     30  C   UNL     1      26.793   2.602  52.075  1.00  0.00     0.227 A 
ATOM     31  N   UNL     1      27.638   3.222  51.262  1.00  0.00    -0.221 NA
ATOM     32  N   UNL     1      27.123   1.502  52.800  1.00  0.00    -0.213 NA
ATOM     33  C   UNL     1      28.892   2.734  51.205  1.00  0.00     0.117 A 
ATOM     34  C   UNL     1      28.372   1.035  52.686  1.00  0.00     0.077 A 
ATOM     35  C   UNL     1      29.275   1.642  51.886  1.00  0.00     0.049 A 
BRANCH  34  36
ATOM     36  C   UNL     1      28.694  -0.149  53.525  1.00  0.00     0.019 A 
ATOM     37  C   UNL     1      27.908  -0.499  54.635  1.00  0.00     0.013 A 
ATOM     38  C   UNL     1      29.816  -0.949  53.234  1.00  0.00     0.121 A 
ATOM     39  C   UNL     1      28.271  -1.601  55.398  1.00  0.00     0.021 A 
ATOM     40  N   UNL     1      30.176  -2.007  53.971  1.00  0.00    -0.264 NA
ATOM     41  C   UNL     1      29.392  -2.335  55.011  1.00  0.00     0.111 A 
ENDBRANCH  34  36
ENDBRANCH  28  30
ENDBRANCH   6  28
TORSDOF 7
ENDMDL
MODEL 19
REMARK VINA RESULT:   -10.362      3.651     12.290
REMARK INTER + INTRA:         -13.766
REMARK INTER:                 -12.450
REMARK INTRA:                  -1.316
REMARK CONF_INDEPENDENT:        2.088
REMARK UNBOUND:                -1.316
REMARK SMILES Cc1cn(-c2cc(NC(=O)c3ccc(C)c(Nc4nccc(-c5cccnc5)n4)c3)cc(C(F)(F)F)c2)cn1
REMARK SMILES IDX 11 1 12 2 13 3 14 4 15 5 16 6 30 7 9 8 10 9 8 10 7 12 6 13
REMARK SMILES IDX 31 14 5 15 32 16 37 17 4 18 3 19 38 20 2 21 39 22 1 23 33 24
REMARK SMILES IDX 34 25 35 26 36 27 17 28 18 30 19 31 29 32 20 33 22 34 21 35
REMARK SMILES IDX 23 36 24 37 28 38 25 39 27 40 26 41
REMARK H PARENT 8 11 17 29
ROOT
ATOM      1  C   UNL     1      26.667   3.139  51.888  1.00  0.00     0.042 A 
ATOM      2  C   UNL     1      26.261   3.225  50.548  1.00  0.00     0.014 A 
ATOM      3  C   UNL     1      25.031   3.783  50.195  1.00  0.00     0.006 A 
ATOM      4  C   UNL     1      24.127   4.197  51.160  1.00  0.00    -0.027 A 
ATOM      5  C   UNL     1      22.786   4.797  50.760  1.00  0.00     0.046 C 
ATOM      6  C   UNL     1      24.481   4.019  52.496  1.00  0.00     0.045 A 
ATOM      7  C   UNL     1      25.730   3.480  52.829  1.00  0.00     0.040 A 
ENDROOT
BRANCH   1   8
ATOM      8  C   UNL     1      27.887   2.453  52.357  1.00  0.00     0.255 C 
ATOM      9  O   UNL     1      28.333   2.849  53.406  1.00  0.00    -0.269 OA
ATOM     10  N   UNL     1      28.214   1.322  51.714  1.00  0.00    -0.322 N 
ATOM     11  H   UNL     1      27.632   1.058  50.907  1.00  0.00     0.170 HD
BRANCH  10  12
ATOM     12  C   UNL     1      29.267   0.475  52.038  1.00  0.00     0.044 A 
ATOM     13  C   UNL     1      30.213   0.084  51.059  1.00  0.00     0.052 A 
ATOM     14  C   UNL     1      29.348  -0.111  53.320  1.00  0.00     0.039 A 
ATOM     15  C   UNL     1      31.281  -0.760  51.377  1.00  0.00     0.049 A 
ATOM     16  C   UNL     1      30.449  -0.953  53.649  1.00  0.00     0.060 A 
ATOM     17  C   UNL     1      31.377  -1.289  52.660  1.00  0.00     0.039 A 
BRANCH  15  18
ATOM     18  N   UNL     1      32.246  -1.119  50.425  1.00  0.00    -0.306 N 
ATOM     19  C   UNL     1      33.558  -0.667  50.295  1.00  0.00     0.116 A 
ATOM     20  C   UNL     1      32.070  -1.921  49.368  1.00  0.00     0.204 A 
ATOM     21  C   UNL     1      34.087  -1.222  49.182  1.00  0.00     0.056 A 
ATOM     22  N   UNL     1      33.151  -2.028  48.635  1.00  0.00    -0.242 NA
ATOM     23  C   UNL     1      35.483  -1.051  48.633  1.00  0.00     0.068 C 
ENDBRANCH  15  18
BRANCH  16  24
ATOM     24  C   UNL     1      30.542  -1.511  55.031  1.00  0.00     0.416 C 
ATOM     25  F   UNL     1      29.366  -1.630  55.679  1.00  0.00    -0.166 F 
ATOM     26  F   UNL     1      30.972  -2.768  55.010  1.00  0.00    -0.166 F 
ATOM     27  F   UNL     1      31.275  -0.730  55.852  1.00  0.00    -0.166 F 
ENDBRANCH  16  24
ENDBRANCH  10  12
ENDBRANCH   1   8
BRANCH   6  28
ATOM     28  N   UNL     1      23.659   4.576  53.484  1.00  0.00    -0.324 N 
ATOM     29  H   UNL     1      22.793   4.096  53.770  1.00  0.00     0.170 HD
BRANCH  28  30
ATOM     30  C   UNL     1      24.022   5.786  54.077  1.00  0.00     0.227 A 
ATOM     31  N   UNL     1      25.072   6.056  54.842  1.00  0.00    -0.221 NA
ATOM     32  N   UNL     1      23.043   6.688  53.806  1.00  0.00    -0.213 NA
ATOM     33  C   UNL     1      25.162   7.309  55.327  1.00  0.00     0.117 A 
ATOM     34  C   UNL     1      23.160   7.911  54.336  1.00  0.00     0.077 A 
ATOM     35  C   UNL     1      24.220   8.240  55.106  1.00  0.00     0.049 A 
BRANCH  34  36
ATOM     36  C   UNL     1      22.082   8.870  53.981  1.00  0.00     0.019 A 
ATOM     37  C   UNL     1      20.763   8.445  53.756  1.00  0.00     0.013 A 
ATOM     38  C   UNL     1      22.364  10.244  53.845  1.00  0.00     0.121 A 
ATOM     39  C   UNL     1      19.802   9.383  53.402  1.00  0.00     0.021 A 
ATOM     40  N   UNL     1      21.443  11.152  53.496  1.00  0.00    -0.264 NA
ATOM     41  C   UNL     1      20.185  10.721  53.312  1.00  0.00     0.111 A 
ENDBRANCH  34  36
ENDBRANCH  28  30
ENDBRANCH   6  28
TORSDOF 7
ENDMDL
MODEL 20
REMARK VINA RESULT:    -9.666      4.186     10.491
REMARK INTER + INTRA:         -13.662
REMARK INTER:                 -11.755
REMARK INTRA:                  -1.907
REMARK CONF_INDEPENDENT:        2.088
REMARK UNBOUND:                -1.907
REMARK SMILES Cc1cn(-c2cc(NC(=O)c3ccc(C)c(Nc4nccc(-c5cccnc5)n4)c3)cc(C(F)(F)F)c2)cn1
REMARK SMILES IDX 11 1 12 2 13 3 14 4 15 5 16 6 30 7 9 8 10 9 8 10 7 12 6 13
REMARK SMILES IDX 31 14 5 15 32 16 37 17 4 18 3 19 38 20 2 21 39 22 1 23 33 24
REMARK SMILES IDX 34 25 35 26 36 27 17 28 18 30 19 31 29 32 20 33 22 34 21 35
REMARK SMILES IDX 23 36 24 37 28 38 25 39 27 40 26 41
REMARK H PARENT 8 11 17 29
ROOT
ATOM      1  C   UNL     1      21.581   7.081  53.841  1.00  0.00     0.042 A 
ATOM      2  C   UNL     1      21.135   8.369  53.508  1.00  0.00     0.014 A 
ATOM      3  C   UNL     1      20.536   9.198  54.458  1.00  0.00     0.006 A 
ATOM      4  C   UNL     1      20.283   8.752  55.745  1.00  0.00    -0.027 A 
ATOM      5  C   UNL     1      19.623   9.665  56.768  1.00  0.00     0.046 C 
ATOM      6  C   UNL     1      20.630   7.437  56.052  1.00  0.00     0.045 A 
ATOM      7  C   UNL     1      21.253   6.629  55.093  1.00  0.00     0.040 A 
ENDROOT
BRANCH   1   8
ATOM      8  C   UNL     1      22.107   6.095  52.876  1.00  0.00     0.255 C 
ATOM      9  O   UNL     1      21.302   5.662  52.087  1.00  0.00    -0.269 OA
ATOM     10  N   UNL     1      23.442   5.980  52.815  1.00  0.00    -0.322 N 
ATOM     11  H   UNL     1      23.990   6.535  53.488  1.00  0.00     0.170 HD
BRANCH  10  12
ATOM     12  C   UNL     1      24.152   5.181  51.929  1.00  0.00     0.044 A 
ATOM     13  C   UNL     1      25.241   4.391  52.374  1.00  0.00     0.052 A 
ATOM     14  C   UNL     1      23.883   5.230  50.544  1.00  0.00     0.039 A 
ATOM     15  C   UNL     1      25.956   3.576  51.492  1.00  0.00     0.049 A 
ATOM     16  C   UNL     1      24.598   4.383  49.650  1.00  0.00     0.060 A 
ATOM     17  C   UNL     1      25.644   3.596  50.136  1.00  0.00     0.039 A 
BRANCH  15  18
ATOM     18  N   UNL     1      27.008   2.758  51.930  1.00  0.00    -0.306 N 
ATOM     19  C   UNL     1      27.180   2.141  53.168  1.00  0.00     0.116 A 
ATOM     20  C   UNL     1      28.132   2.472  51.263  1.00  0.00     0.204 A 
ATOM     21  C   UNL     1      28.382   1.524  53.169  1.00  0.00     0.056 A 
ATOM     22  N   UNL     1      28.948   1.715  51.956  1.00  0.00    -0.242 NA
ATOM     23  C   UNL     1      29.007   0.708  54.274  1.00  0.00     0.068 C 
ENDBRANCH  15  18
BRANCH  16  24
ATOM     24  C   UNL     1      24.251   4.411  48.196  1.00  0.00     0.416 C 
ATOM     25  F   UNL     1      22.959   4.680  47.924  1.00  0.00    -0.166 F 
ATOM     26  F   UNL     1      24.875   5.406  47.576  1.00  0.00    -0.166 F 
ATOM     27  F   UNL     1      24.456   3.220  47.597  1.00  0.00    -0.166 F 
ENDBRANCH  16  24
ENDBRANCH  10  12
ENDBRANCH   1   8
BRANCH   6  28
ATOM     28  N   UNL     1      20.535   7.017  57.385  1.00  0.00    -0.324 N 
ATOM     29  H   UNL     1      19.693   6.525  57.715  1.00  0.00     0.170 HD
BRANCH  28  30
ATOM     30  C   UNL     1      21.591   7.270  58.262  1.00  0.00     0.227 A 
ATOM     31  N   UNL     1      21.547   7.712  59.513  1.00  0.00    -0.221 NA
ATOM     32  N   UNL     1      22.749   7.059  57.585  1.00  0.00    -0.213 NA
ATOM     33  C   UNL     1      22.729   7.914  60.126  1.00  0.00     0.117 A 
ATOM     34  C   UNL     1      23.898   7.305  58.225  1.00  0.00     0.077 A 
ATOM     35  C   UNL     1      23.906   7.738  59.504  1.00  0.00     0.049 A 
BRANCH  34  36
ATOM     36  C   UNL     1      25.137   7.025  57.453  1.00  0.00     0.019 A 
ATOM     37  C   UNL     1      25.115   6.879  56.056  1.00  0.00     0.013 A 
ATOM     38  C   UNL     1      26.374   6.882  58.111  1.00  0.00     0.121 A 
ATOM     39  C   UNL     1      26.300   6.593  55.389  1.00  0.00     0.021 A 
ATOM     40  N   UNL     1      27.517   6.598  57.474  1.00  0.00    -0.264 NA
ATOM     41  C   UNL     1      27.472   6.490  56.137  1.00  0.00     0.111 A 
ENDBRANCH  34  36
ENDBRANCH  28  30
ENDBRANCH   6  28
TORSDOF 7
ENDMDL
