MODEL 1
REMARK VINA RESULT:   -15.153      0.000      0.000
REMARK INTER + INTRA:         -18.417
REMARK INTER:                 -17.242
REMARK INTRA:                  -1.176
REMARK CONF_INDEPENDENT:        2.088
REMARK UNBOUND:                -1.176
REMARK SMILES Cc1cn(-c2cc(NC(=O)c3ccc(C)c(Nc4nccc(-c5cccnc5)n4)c3)cc(C(F)(F)F)c2)cn1
REMARK SMILES IDX 11 1 12 2 13 3 14 4 15 5 16 6 30 7 9 8 10 9 8 10 7 12 6 13
REMARK SMILES IDX 31 14 5 15 32 16 37 17 4 18 3 19 38 20 2 21 39 22 1 23 33 24
REMARK SMILES IDX 34 25 35 26 36 27 17 28 18 30 19 31 29 32 20 33 22 34 21 35
REMARK SMILES IDX 23 36 24 37 28 38 25 39 27 40 26 41
REMARK H PARENT 8 11 17 29
ROOT
ATOM      1  C   UNL     1      27.979   1.852  53.220  1.00  0.00     0.042 A 
ATOM      2  C   UNL     1      27.701   1.347  54.499  1.00  0.00     0.014 A 
ATOM      3  C   UNL     1      28.421   0.276  55.030  1.00  0.00     0.006 A 
ATOM      4  C   UNL     1      29.384  -0.383  54.283  1.00  0.00    -0.027 A 
ATOM      5  C   UNL     1      30.157  -1.554  54.874  1.00  0.00     0.046 C 
ATOM      6  C   UNL     1      29.594   0.049  52.975  1.00  0.00     0.045 A 
ATOM      7  C   UNL     1      28.878   1.141  52.468  1.00  0.00     0.040 A 
ENDROOT
BRANCH   1   8
ATOM      8  C   UNL     1      27.188   2.892  52.533  1.00  0.00     0.255 C 
ATOM      9  O   UNL     1      27.525   3.135  51.400  1.00  0.00    -0.269 OA
ATOM     10  N   UNL     1      26.049   3.264  53.136  1.00  0.00    -0.322 N 
ATOM     11  H   UNL     1      25.850   2.847  54.057  1.00  0.00     0.170 HD
BRANCH  10  12
ATOM     12  C   UNL     1      25.113   4.159  52.633  1.00  0.00     0.044 A 
ATOM     13  C   UNL     1      24.185   4.800  53.490  1.00  0.00     0.052 A 
ATOM     14  C   UNL     1      24.987   4.358  51.240  1.00  0.00     0.039 A 
ATOM     15  C   UNL     1      23.247   5.709  52.994  1.00  0.00     0.049 A 
ATOM     16  C   UNL     1      24.046   5.302  50.739  1.00  0.00     0.060 A 
ATOM     17  C   UNL     1      23.169   5.935  51.624  1.00  0.00     0.039 A 
BRANCH  15  18
ATOM     18  N   UNL     1      22.352   6.381  53.841  1.00  0.00    -0.306 N 
ATOM     19  C   UNL     1      22.056   6.130  55.179  1.00  0.00     0.116 A 
ATOM     20  C   UNL     1      21.513   7.366  53.499  1.00  0.00     0.204 A 
ATOM     21  C   UNL     1      21.071   6.973  55.559  1.00  0.00     0.056 A 
ATOM     22  N   UNL     1      20.768   7.760  54.503  1.00  0.00    -0.242 NA
ATOM     23  C   UNL     1      20.427   7.095  56.919  1.00  0.00     0.068 C 
ENDBRANCH  15  18
BRANCH  16  24
ATOM     24  C   UNL     1      23.975   5.537  49.266  1.00  0.00     0.416 C 
ATOM     25  F   UNL     1      24.693   6.588  48.822  1.00  0.00    -0.166 F 
ATOM     26  F   UNL     1      24.520   4.529  48.595  1.00  0.00    -0.166 F 
ATOM     27  F   UNL     1      22.722   5.815  48.850  1.00  0.00    -0.166 F 
ENDBRANCH  16  24
ENDBRANCH  10  12
ENDBRANCH   1   8
BRANCH   6  28
ATOM     28  N   UNL     1      30.669  -0.493  52.259  1.00  0.00    -0.324 N 
ATOM     29  H   UNL     1      30.525  -1.300  51.636  1.00  0.00     0.170 HD
BRANCH  28  30
ATOM     30  C   UNL     1      31.939   0.072  52.396  1.00  0.00     0.227 A 
ATOM     31  N   UNL     1      32.342   1.024  53.228  1.00  0.00    -0.221 NA
ATOM     32  N   UNL     1      32.738  -0.473  51.442  1.00  0.00    -0.213 NA
ATOM     33  C   UNL     1      33.624   1.419  53.121  1.00  0.00     0.117 A 
ATOM     34  C   UNL     1      33.995  -0.026  51.353  1.00  0.00     0.077 A 
ATOM     35  C   UNL     1      34.457   0.929  52.190  1.00  0.00     0.049 A 
BRANCH  34  36
ATOM     36  C   UNL     1      34.838  -0.678  50.318  1.00  0.00     0.019 A 
ATOM     37  C   UNL     1      36.123  -0.205  50.009  1.00  0.00     0.013 A 
ATOM     38  C   UNL     1      34.357  -1.792  49.602  1.00  0.00     0.121 A 
ATOM     39  C   UNL     1      36.856  -0.839  49.014  1.00  0.00     0.021 A 
ATOM     40  N   UNL     1      35.055  -2.403  48.636  1.00  0.00    -0.264 NA
ATOM     41  C   UNL     1      36.291  -1.945  48.379  1.00  0.00     0.111 A 
ENDBRANCH  34  36
ENDBRANCH  28  30
ENDBRANCH   6  28
TORSDOF 7
ENDMDL
MODEL 2
REMARK VINA RESULT:   -14.113      2.217      3.668
REMARK INTER + INTRA:         -17.424
REMARK INTER:                 -16.202
REMARK INTRA:                  -1.222
REMARK CONF_INDEPENDENT:        2.088
REMARK UNBOUND:                -1.222
REMARK SMILES Cc1cn(-c2cc(NC(=O)c3ccc(C)c(Nc4nccc(-c5cccnc5)n4)c3)cc(C(F)(F)F)c2)cn1
REMARK SMILES IDX 11 1 12 2 13 3 14 4 15 5 16 6 30 7 9 8 10 9 8 10 7 12 6 13
REMARK SMILES IDX 31 14 5 15 32 16 37 17 4 18 3 19 38 20 2 21 39 22 1 23 33 24
REMARK SMILES IDX 34 25 35 26 36 27 17 28 18 30 19 31 29 32 20 33 22 34 21 35
REMARK SMILES IDX 23 36 24 37 28 38 25 39 27 40 26 41
REMARK H PARENT 8 11 17 29
ROOT
ATOM      1  C   UNL     1      28.259   1.656  53.591  1.00  0.00     0.042 A 
ATOM      2  C   UNL     1      28.058   1.080  54.854  1.00  0.00     0.014 A 
ATOM      3  C   UNL     1      28.815  -0.011  55.284  1.00  0.00     0.006 A 
ATOM      4  C   UNL     1      29.737  -0.620  54.449  1.00  0.00    -0.027 A 
ATOM      5  C   UNL     1      30.550  -1.814  54.929  1.00  0.00     0.046 C 
ATOM      6  C   UNL     1      29.868  -0.116  53.155  1.00  0.00     0.045 A 
ATOM      7  C   UNL     1      29.118   0.995  52.751  1.00  0.00     0.040 A 
ENDROOT
BRANCH   1   8
ATOM      8  C   UNL     1      27.423   2.724  53.008  1.00  0.00     0.255 C 
ATOM      9  O   UNL     1      27.850   3.221  51.994  1.00  0.00    -0.269 OA
ATOM     10  N   UNL     1      26.186   2.847  53.511  1.00  0.00    -0.322 N 
ATOM     11  H   UNL     1      25.941   2.238  54.304  1.00  0.00     0.170 HD
BRANCH  10  12
ATOM     12  C   UNL     1      25.206   3.723  53.061  1.00  0.00     0.044 A 
ATOM     13  C   UNL     1      25.039   3.979  51.677  1.00  0.00     0.052 A 
ATOM     14  C   UNL     1      24.434   4.469  53.978  1.00  0.00     0.039 A 
ATOM     15  C   UNL     1      24.049   4.850  51.214  1.00  0.00     0.049 A 
ATOM     16  C   UNL     1      23.411   5.340  53.504  1.00  0.00     0.060 A 
ATOM     17  C   UNL     1      23.261   5.540  52.129  1.00  0.00     0.039 A 
BRANCH  15  18
ATOM     18  N   UNL     1      23.848   5.077  49.844  1.00  0.00    -0.306 N 
ATOM     19  C   UNL     1      23.573   6.275  49.187  1.00  0.00     0.116 A 
ATOM     20  C   UNL     1      23.789   4.153  48.879  1.00  0.00     0.204 A 
ATOM     21  C   UNL     1      23.371   6.002  47.879  1.00  0.00     0.056 A 
ATOM     22  N   UNL     1      23.543   4.673  47.701  1.00  0.00    -0.242 NA
ATOM     23  C   UNL     1      23.063   6.972  46.764  1.00  0.00     0.068 C 
ENDBRANCH  15  18
BRANCH  16  24
ATOM     24  C   UNL     1      22.569   6.072  54.497  1.00  0.00     0.416 C 
ATOM     25  F   UNL     1      21.477   5.404  54.921  1.00  0.00    -0.166 F 
ATOM     26  F   UNL     1      23.230   6.266  55.632  1.00  0.00    -0.166 F 
ATOM     27  F   UNL     1      22.061   7.216  53.995  1.00  0.00    -0.166 F 
ENDBRANCH  16  24
ENDBRANCH  10  12
ENDBRANCH   1   8
BRANCH   6  28
ATOM     28  N   UNL     1      30.904  -0.608  52.351  1.00  0.00    -0.324 N 
ATOM     29  H   UNL     1      30.733  -1.391  51.704  1.00  0.00     0.170 HD
BRANCH  28  30
ATOM     30  C   UNL     1      32.172  -0.027  52.432  1.00  0.00     0.227 A 
ATOM     31  N   UNL     1      32.596   0.936  53.240  1.00  0.00    -0.221 NA
ATOM     32  N   UNL     1      32.937  -0.570  51.450  1.00  0.00    -0.213 NA
ATOM     33  C   UNL     1      33.868   1.347  53.078  1.00  0.00     0.117 A 
ATOM     34  C   UNL     1      34.184  -0.107  51.307  1.00  0.00     0.077 A 
ATOM     35  C   UNL     1      34.668   0.859  52.117  1.00  0.00     0.049 A 
BRANCH  34  36
ATOM     36  C   UNL     1      34.992  -0.758  50.243  1.00  0.00     0.019 A 
ATOM     37  C   UNL     1      36.215  -0.218  49.814  1.00  0.00     0.013 A 
ATOM     38  C   UNL     1      34.539  -1.937  49.620  1.00  0.00     0.121 A 
ATOM     39  C   UNL     1      36.915  -0.855  48.797  1.00  0.00     0.021 A 
ATOM     40  N   UNL     1      35.205  -2.552  48.635  1.00  0.00    -0.264 NA
ATOM     41  C   UNL     1      36.384  -2.028  48.262  1.00  0.00     0.111 A 
ENDBRANCH  34  36
ENDBRANCH  28  30
ENDBRANCH   6  28
TORSDOF 7
ENDMDL
MODEL 3
REMARK VINA RESULT:   -12.406      1.889      2.509
REMARK INTER + INTRA:         -15.672
REMARK INTER:                 -14.494
REMARK INTRA:                  -1.178
REMARK CONF_INDEPENDENT:        2.088
REMARK UNBOUND:                -1.178
REMARK SMILES Cc1cn(-c2cc(NC(=O)c3ccc(C)c(Nc4nccc(-c5cccnc5)n4)c3)cc(C(F)(F)F)c2)cn1
REMARK SMILES IDX 11 1 12 2 13 3 14 4 15 5 16 6 30 7 9 8 10 9 8 10 7 12 6 13
REMARK SMILES IDX 31 14 5 15 32 16 37 17 4 18 3 19 38 20 2 21 39 22 1 23 33 24
REMARK SMILES IDX 34 25 35 26 36 27 17 28 18 30 19 31 29 32 20 33 22 34 21 35
REMARK SMILES IDX 23 36 24 37 28 38 25 39 27 40 26 41
REMARK H PARENT 8 11 17 29
ROOT
ATOM      1  C   UNL     1      28.194   1.881  52.769  1.00  0.00     0.042 A 
ATOM      2  C   UNL     1      27.670   1.269  53.918  1.00  0.00     0.014 A 
ATOM      3  C   UNL     1      28.408   0.333  54.644  1.00  0.00     0.006 A 
ATOM      4  C   UNL     1      29.655  -0.090  54.212  1.00  0.00    -0.027 A 
ATOM      5  C   UNL     1      30.445  -1.117  55.010  1.00  0.00     0.046 C 
ATOM      6  C   UNL     1      30.137   0.437  53.015  1.00  0.00     0.045 A 
ATOM      7  C   UNL     1      29.392   1.394  52.315  1.00  0.00     0.040 A 
ENDROOT
BRANCH   1   8
ATOM      8  C   UNL     1      27.440   2.780  51.874  1.00  0.00     0.255 C 
ATOM      9  O   UNL     1      28.035   3.154  50.893  1.00  0.00    -0.269 OA
ATOM     10  N   UNL     1      26.122   2.878  52.107  1.00  0.00    -0.322 N 
ATOM     11  H   UNL     1      25.754   2.376  52.927  1.00  0.00     0.170 HD
BRANCH  10  12
ATOM     12  C   UNL     1      25.210   3.596  51.344  1.00  0.00     0.044 A 
ATOM     13  C   UNL     1      24.715   4.847  51.789  1.00  0.00     0.052 A 
ATOM     14  C   UNL     1      24.663   3.040  50.167  1.00  0.00     0.039 A 
ATOM     15  C   UNL     1      23.805   5.582  51.024  1.00  0.00     0.049 A 
ATOM     16  C   UNL     1      23.753   3.800  49.378  1.00  0.00     0.060 A 
ATOM     17  C   UNL     1      23.314   5.043  49.839  1.00  0.00     0.039 A 
BRANCH  15  18
ATOM     18  N   UNL     1      23.341   6.841  51.436  1.00  0.00    -0.306 N 
ATOM     19  C   UNL     1      22.646   7.182  52.595  1.00  0.00     0.116 A 
ATOM     20  C   UNL     1      23.395   7.981  50.738  1.00  0.00     0.204 A 
ATOM     21  C   UNL     1      22.331   8.494  52.527  1.00  0.00     0.056 A 
ATOM     22  N   UNL     1      22.837   8.983  51.373  1.00  0.00    -0.242 NA
ATOM     23  C   UNL     1      21.598   9.327  53.550  1.00  0.00     0.068 C 
ENDBRANCH  15  18
BRANCH  16  24
ATOM     24  C   UNL     1      23.237   3.211  48.105  1.00  0.00     0.416 C 
ATOM     25  F   UNL     1      22.494   2.096  48.254  1.00  0.00    -0.166 F 
ATOM     26  F   UNL     1      22.380   4.034  47.512  1.00  0.00    -0.166 F 
ATOM     27  F   UNL     1      24.230   2.819  47.281  1.00  0.00    -0.166 F 
ENDBRANCH  16  24
ENDBRANCH  10  12
ENDBRANCH   1   8
BRANCH   6  28
ATOM     28  N   UNL     1      31.457   0.150  52.644  1.00  0.00    -0.324 N 
ATOM     29  H   UNL     1      32.238   0.406  53.264  1.00  0.00     0.170 HD
BRANCH  28  30
ATOM     30  C   UNL     1      31.705  -0.487  51.427  1.00  0.00     0.227 A 
ATOM     31  N   UNL     1      30.844  -1.069  50.601  1.00  0.00    -0.221 NA
ATOM     32  N   UNL     1      33.049  -0.493  51.231  1.00  0.00    -0.213 NA
ATOM     33  C   UNL     1      31.360  -1.653  49.503  1.00  0.00     0.117 A 
ATOM     34  C   UNL     1      33.516  -1.113  50.142  1.00  0.00     0.077 A 
ATOM     35  C   UNL     1      32.679  -1.705  49.263  1.00  0.00     0.049 A 
BRANCH  34  36
ATOM     36  C   UNL     1      34.989  -1.062  49.955  1.00  0.00     0.019 A 
ATOM     37  C   UNL     1      35.717  -2.183  49.526  1.00  0.00     0.013 A 
ATOM     38  C   UNL     1      35.703   0.123  50.222  1.00  0.00     0.121 A 
ATOM     39  C   UNL     1      37.096  -2.084  49.394  1.00  0.00     0.021 A 
ATOM     40  N   UNL     1      37.033   0.223  50.104  1.00  0.00    -0.264 NA
ATOM     41  C   UNL     1      37.700  -0.857  49.667  1.00  0.00     0.111 A 
ENDBRANCH  34  36
ENDBRANCH  28  30
ENDBRANCH   6  28
TORSDOF 7
ENDMDL
MODEL 4
REMARK VINA RESULT:   -12.141      1.291      1.934
REMARK INTER + INTRA:         -15.706
REMARK INTER:                 -14.229
REMARK INTRA:                  -1.477
REMARK CONF_INDEPENDENT:        2.088
REMARK UNBOUND:                -1.477
REMARK SMILES Cc1cn(-c2cc(NC(=O)c3ccc(C)c(Nc4nccc(-c5cccnc5)n4)c3)cc(C(F)(F)F)c2)cn1
REMARK SMILES IDX 11 1 12 2 13 3 14 4 15 5 16 6 30 7 9 8 10 9 8 10 7 12 6 13
REMARK SMILES IDX 31 14 5 15 32 16 37 17 4 18 3 19 38 20 2 21 39 22 1 23 33 24
REMARK SMILES IDX 34 25 35 26 36 27 17 28 18 30 19 31 29 32 20 33 22 34 21 35
REMARK SMILES IDX 23 36 24 37 28 38 25 39 27 40 26 41
REMARK H PARENT 8 11 17 29
ROOT
ATOM      1  C   UNL     1      28.204   1.843  53.158  1.00  0.00     0.042 A 
ATOM      2  C   UNL     1      27.800   0.528  53.436  1.00  0.00     0.014 A 
ATOM      3  C   UNL     1      28.659  -0.381  54.055  1.00  0.00     0.006 A 
ATOM      4  C   UNL     1      29.972  -0.046  54.344  1.00  0.00    -0.027 A 
ATOM      5  C   UNL     1      30.900  -1.051  55.012  1.00  0.00     0.046 C 
ATOM      6  C   UNL     1      30.411   1.225  53.976  1.00  0.00     0.045 A 
ATOM      7  C   UNL     1      29.526   2.131  53.378  1.00  0.00     0.040 A 
ENDROOT
BRANCH   1   8
ATOM      8  C   UNL     1      27.410   2.826  52.397  1.00  0.00     0.255 C 
ATOM      9  O   UNL     1      27.771   3.017  51.261  1.00  0.00    -0.269 OA
ATOM     10  N   UNL     1      26.247   3.203  52.949  1.00  0.00    -0.322 N 
ATOM     11  H   UNL     1      26.032   2.831  53.885  1.00  0.00     0.170 HD
BRANCH  10  12
ATOM     12  C   UNL     1      25.306   4.048  52.375  1.00  0.00     0.044 A 
ATOM     13  C   UNL     1      24.519   4.912  53.176  1.00  0.00     0.052 A 
ATOM     14  C   UNL     1      25.029   3.980  50.992  1.00  0.00     0.039 A 
ATOM     15  C   UNL     1      23.577   5.773  52.607  1.00  0.00     0.049 A 
ATOM     16  C   UNL     1      24.085   4.874  50.411  1.00  0.00     0.060 A 
ATOM     17  C   UNL     1      23.352   5.731  51.235  1.00  0.00     0.039 A 
BRANCH  15  18
ATOM     18  N   UNL     1      22.822   6.662  53.387  1.00  0.00    -0.306 N 
ATOM     19  C   UNL     1      21.942   6.380  54.431  1.00  0.00     0.116 A 
ATOM     20  C   UNL     1      22.723   7.986  53.224  1.00  0.00     0.204 A 
ATOM     21  C   UNL     1      21.377   7.540  54.831  1.00  0.00     0.056 A 
ATOM     22  N   UNL     1      21.903   8.537  54.085  1.00  0.00    -0.242 NA
ATOM     23  C   UNL     1      20.376   7.751  55.940  1.00  0.00     0.068 C 
ENDBRANCH  15  18
BRANCH  16  24
ATOM     24  C   UNL     1      23.855   4.821  48.935  1.00  0.00     0.416 C 
ATOM     25  F   UNL     1      23.690   3.583  48.429  1.00  0.00    -0.166 F 
ATOM     26  F   UNL     1      22.708   5.406  48.610  1.00  0.00    -0.166 F 
ATOM     27  F   UNL     1      24.900   5.309  48.235  1.00  0.00    -0.166 F 
ENDBRANCH  16  24
ENDBRANCH  10  12
ENDBRANCH   1   8
BRANCH   6  28
ATOM     28  N   UNL     1      31.679   1.641  54.402  1.00  0.00    -0.324 N 
ATOM     29  H   UNL     1      31.772   2.304  55.184  1.00  0.00     0.170 HD
BRANCH  28  30
ATOM     30  C   UNL     1      32.816   1.151  53.757  1.00  0.00     0.227 A 
ATOM     31  N   UNL     1      34.093   1.347  54.057  1.00  0.00    -0.221 NA
ATOM     32  N   UNL     1      32.403   0.461  52.662  1.00  0.00    -0.213 NA
ATOM     33  C   UNL     1      35.001   0.788  53.234  1.00  0.00     0.117 A 
ATOM     34  C   UNL     1      33.342  -0.049  51.858  1.00  0.00     0.077 A 
ATOM     35  C   UNL     1      34.655   0.109  52.130  1.00  0.00     0.049 A 
BRANCH  34  36
ATOM     36  C   UNL     1      32.839  -0.825  50.694  1.00  0.00     0.019 A 
ATOM     37  C   UNL     1      31.470  -0.892  50.391  1.00  0.00     0.013 A 
ATOM     38  C   UNL     1      33.732  -1.531  49.865  1.00  0.00     0.121 A 
ATOM     39  C   UNL     1      31.055  -1.653  49.306  1.00  0.00     0.021 A 
ATOM     40  N   UNL     1      33.338  -2.272  48.822  1.00  0.00    -0.264 NA
ATOM     41  C   UNL     1      32.025  -2.299  48.540  1.00  0.00     0.111 A 
ENDBRANCH  34  36
ENDBRANCH  28  30
ENDBRANCH   6  28
TORSDOF 7
ENDMDL
MODEL 5
REMARK VINA RESULT:   -11.783      1.674      3.671
REMARK INTER + INTRA:         -15.506
REMARK INTER:                 -13.871
REMARK INTRA:                  -1.635
REMARK CONF_INDEPENDENT:        2.088
REMARK UNBOUND:                -1.635
REMARK SMILES Cc1cn(-c2cc(NC(=O)c3ccc(C)c(Nc4nccc(-c5cccnc5)n4)c3)cc(C(F)(F)F)c2)cn1
REMARK SMILES IDX 11 1 12 2 13 3 14 4 15 5 16 6 30 7 9 8 10 9 8 10 7 12 6 13
REMARK SMILES IDX 31 14 5 15 32 16 37 17 4 18 3 19 38 20 2 21 39 22 1 23 33 24
REMARK SMILES IDX 34 25 35 26 36 27 17 28 18 30 19 31 29 32 20 33 22 34 21 35
REMARK SMILES IDX 23 36 24 37 28 38 25 39 27 40 26 41
REMARK H PARENT 8 11 17 29
ROOT
ATOM      1  C   UNL     1      27.712   1.759  53.045  1.00  0.00     0.042 A 
ATOM      2  C   UNL     1      27.389   1.090  54.234  1.00  0.00     0.014 A 
ATOM      3  C   UNL     1      28.087  -0.050  54.639  1.00  0.00     0.006 A 
ATOM      4  C   UNL     1      29.069  -0.612  53.840  1.00  0.00    -0.027 A 
ATOM      5  C   UNL     1      29.816  -1.860  54.291  1.00  0.00     0.046 C 
ATOM      6  C   UNL     1      29.323  -0.011  52.608  1.00  0.00     0.045 A 
ATOM      7  C   UNL     1      28.630   1.146  52.232  1.00  0.00     0.040 A 
ENDROOT
BRANCH   1   8
ATOM      8  C   UNL     1      26.949   2.890  52.480  1.00  0.00     0.255 C 
ATOM      9  O   UNL     1      27.243   3.202  51.352  1.00  0.00    -0.269 OA
ATOM     10  N   UNL     1      25.863   3.274  53.168  1.00  0.00    -0.322 N 
ATOM     11  H   UNL     1      25.686   2.799  54.064  1.00  0.00     0.170 HD
BRANCH  10  12
ATOM     12  C   UNL     1      24.957   4.254  52.783  1.00  0.00     0.044 A 
ATOM     13  C   UNL     1      24.256   5.016  53.750  1.00  0.00     0.052 A 
ATOM     14  C   UNL     1      24.625   4.429  51.422  1.00  0.00     0.039 A 
ATOM     15  C   UNL     1      23.350   6.011  53.372  1.00  0.00     0.049 A 
ATOM     16  C   UNL     1      23.719   5.459  51.038  1.00  0.00     0.060 A 
ATOM     17  C   UNL     1      23.072   6.208  52.023  1.00  0.00     0.039 A 
BRANCH  15  18
ATOM     18  N   UNL     1      22.683   6.800  54.321  1.00  0.00    -0.306 N 
ATOM     19  C   UNL     1      21.319   7.065  54.436  1.00  0.00     0.116 A 
ATOM     20  C   UNL     1      23.244   7.551  55.277  1.00  0.00     0.204 A 
ATOM     21  C   UNL     1      21.144   7.945  55.446  1.00  0.00     0.056 A 
ATOM     22  N   UNL     1      22.357   8.211  55.980  1.00  0.00    -0.242 NA
ATOM     23  C   UNL     1      19.847   8.518  55.965  1.00  0.00     0.068 C 
ENDBRANCH  15  18
BRANCH  16  24
ATOM     24  C   UNL     1      23.431   5.662  49.586  1.00  0.00     0.416 C 
ATOM     25  F   UNL     1      24.314   6.445  48.935  1.00  0.00    -0.166 F 
ATOM     26  F   UNL     1      23.530   4.520  48.916  1.00  0.00    -0.166 F 
ATOM     27  F   UNL     1      22.251   6.281  49.379  1.00  0.00    -0.166 F 
ENDBRANCH  16  24
ENDBRANCH  10  12
ENDBRANCH   1   8
BRANCH   6  28
ATOM     28  N   UNL     1      30.417  -0.462  51.859  1.00  0.00    -0.324 N 
ATOM     29  H   UNL     1      30.323  -1.281  51.243  1.00  0.00     0.170 HD
BRANCH  28  30
ATOM     30  C   UNL     1      31.638   0.209  51.956  1.00  0.00     0.227 A 
ATOM     31  N   UNL     1      32.725   0.071  51.207  1.00  0.00    -0.221 NA
ATOM     32  N   UNL     1      31.577   1.021  53.042  1.00  0.00    -0.213 NA
ATOM     33  C   UNL     1      33.793   0.817  51.547  1.00  0.00     0.117 A 
ATOM     34  C   UNL     1      32.674   1.719  53.359  1.00  0.00     0.077 A 
ATOM     35  C   UNL     1      33.799   1.626  52.618  1.00  0.00     0.049 A 
BRANCH  34  36
ATOM     36  C   UNL     1      32.545   2.619  54.535  1.00  0.00     0.019 A 
ATOM     37  C   UNL     1      31.495   2.480  55.456  1.00  0.00     0.013 A 
ATOM     38  C   UNL     1      33.476   3.655  54.748  1.00  0.00     0.121 A 
ATOM     39  C   UNL     1      31.410   3.366  56.522  1.00  0.00     0.021 A 
ATOM     40  N   UNL     1      33.395   4.517  55.770  1.00  0.00    -0.264 NA
ATOM     41  C   UNL     1      32.395   4.345  56.650  1.00  0.00     0.111 A 
ENDBRANCH  34  36
ENDBRANCH  28  30
ENDBRANCH   6  28
TORSDOF 7
ENDMDL
MODEL 6
REMARK VINA RESULT:   -11.585      3.733     11.741
REMARK INTER + INTRA:         -14.824
REMARK INTER:                 -13.673
REMARK INTRA:                  -1.150
REMARK CONF_INDEPENDENT:        2.088
REMARK UNBOUND:                -1.150
REMARK SMILES Cc1cn(-c2cc(NC(=O)c3ccc(C)c(Nc4nccc(-c5cccnc5)n4)c3)cc(C(F)(F)F)c2)cn1
REMARK SMILES IDX 11 1 12 2 13 3 14 4 15 5 16 6 30 7 9 8 10 9 8 10 7 12 6 13
REMARK SMILES IDX 31 14 5 15 32 16 37 17 4 18 3 19 38 20 2 21 39 22 1 23 33 24
REMARK SMILES IDX 34 25 35 26 36 27 17 28 18 30 19 31 29 32 20 33 22 34 21 35
REMARK SMILES IDX 23 36 24 37 28 38 25 39 27 40 26 41
REMARK H PARENT 8 11 17 29
ROOT
ATOM      1  C   UNL     1      25.917   3.798  51.873  1.00  0.00     0.042 A 
ATOM      2  C   UNL     1      25.289   4.234  50.697  1.00  0.00     0.014 A 
ATOM      3  C   UNL     1      24.163   5.057  50.736  1.00  0.00     0.006 A 
ATOM      4  C   UNL     1      23.571   5.408  51.939  1.00  0.00    -0.027 A 
ATOM      5  C   UNL     1      22.338   6.300  51.967  1.00  0.00     0.046 C 
ATOM      6  C   UNL     1      24.129   4.893  53.108  1.00  0.00     0.045 A 
ATOM      7  C   UNL     1      25.274   4.089  53.048  1.00  0.00     0.040 A 
ENDROOT
BRANCH   1   8
ATOM      8  C   UNL     1      27.029   2.828  51.926  1.00  0.00     0.255 C 
ATOM      9  O   UNL     1      27.747   2.810  50.956  1.00  0.00    -0.269 OA
ATOM     10  N   UNL     1      27.268   2.267  53.121  1.00  0.00    -0.322 N 
ATOM     11  H   UNL     1      26.621   2.503  53.886  1.00  0.00     0.170 HD
BRANCH  10  12
ATOM     12  C   UNL     1      28.309   1.396  53.419  1.00  0.00     0.044 A 
ATOM     13  C   UNL     1      29.619   1.636  52.936  1.00  0.00     0.052 A 
ATOM     14  C   UNL     1      28.059   0.190  54.110  1.00  0.00     0.039 A 
ATOM     15  C   UNL     1      30.674   0.771  53.239  1.00  0.00     0.049 A 
ATOM     16  C   UNL     1      29.140  -0.678  54.437  1.00  0.00     0.060 A 
ATOM     17  C   UNL     1      30.422  -0.389  53.966  1.00  0.00     0.039 A 
BRANCH  15  18
ATOM     18  N   UNL     1      31.983   1.021  52.801  1.00  0.00    -0.306 N 
ATOM     19  C   UNL     1      32.635   0.537  51.668  1.00  0.00     0.116 A 
ATOM     20  C   UNL     1      32.924   1.721  53.445  1.00  0.00     0.204 A 
ATOM     21  C   UNL     1      33.913   0.974  51.697  1.00  0.00     0.056 A 
ATOM     22  N   UNL     1      34.064   1.740  52.800  1.00  0.00    -0.242 NA
ATOM     23  C   UNL     1      35.002   0.728  50.681  1.00  0.00     0.068 C 
ENDBRANCH  15  18
BRANCH  16  24
ATOM     24  C   UNL     1      28.856  -1.918  55.221  1.00  0.00     0.416 C 
ATOM     25  F   UNL     1      27.999  -2.778  54.637  1.00  0.00    -0.166 F 
ATOM     26  F   UNL     1      29.949  -2.663  55.348  1.00  0.00    -0.166 F 
ATOM     27  F   UNL     1      28.273  -1.653  56.409  1.00  0.00    -0.166 F 
ENDBRANCH  16  24
ENDBRANCH  10  12
ENDBRANCH   1   8
BRANCH   6  28
ATOM     28  N   UNL     1      23.651   5.362  54.338  1.00  0.00    -0.324 N 
ATOM     29  H   UNL     1      22.679   5.174  54.623  1.00  0.00     0.170 HD
BRANCH  28  30
ATOM     30  C   UNL     1      24.502   6.086  55.175  1.00  0.00     0.227 A 
ATOM     31  N   UNL     1      25.806   6.303  55.051  1.00  0.00    -0.221 NA
ATOM     32  N   UNL     1      23.774   6.501  56.244  1.00  0.00    -0.213 NA
ATOM     33  C   UNL     1      26.399   7.006  56.034  1.00  0.00     0.117 A 
ATOM     34  C   UNL     1      24.415   7.168  57.211  1.00  0.00     0.077 A 
ATOM     35  C   UNL     1      25.736   7.429  57.122  1.00  0.00     0.049 A 
BRANCH  34  36
ATOM     36  C   UNL     1      23.567   7.630  58.341  1.00  0.00     0.019 A 
ATOM     37  C   UNL     1      23.985   8.659  59.201  1.00  0.00     0.013 A 
ATOM     38  C   UNL     1      22.317   7.031  58.590  1.00  0.00     0.121 A 
ATOM     39  C   UNL     1      23.163   9.032  60.256  1.00  0.00     0.021 A 
ATOM     40  N   UNL     1      21.524   7.381  59.611  1.00  0.00    -0.264 NA
ATOM     41  C   UNL     1      21.937   8.385  60.402  1.00  0.00     0.111 A 
ENDBRANCH  34  36
ENDBRANCH  28  30
ENDBRANCH   6  28
TORSDOF 7
ENDMDL
MODEL 7
REMARK VINA RESULT:   -11.520      4.142     11.188
REMARK INTER + INTRA:         -14.795
REMARK INTER:                 -13.609
REMARK INTRA:                  -1.186
REMARK CONF_INDEPENDENT:        2.088
REMARK UNBOUND:                -1.186
REMARK SMILES Cc1cn(-c2cc(NC(=O)c3ccc(C)c(Nc4nccc(-c5cccnc5)n4)c3)cc(C(F)(F)F)c2)cn1
REMARK SMILES IDX 11 1 12 2 13 3 14 4 15 5 16 6 30 7 9 8 10 9 8 10 7 12 6 13
REMARK SMILES IDX 31 14 5 15 32 16 37 17 4 18 3 19 38 20 2 21 39 22 1 23 33 24
REMARK SMILES IDX 34 25 35 26 36 27 17 28 18 30 19 31 29 32 20 33 22 34 21 35
REMARK SMILES IDX 23 36 24 37 28 38 25 39 27 40 26 41
REMARK H PARENT 8 11 17 29
ROOT
ATOM      1  C   UNL     1      25.842   3.883  52.092  1.00  0.00     0.042 A 
ATOM      2  C   UNL     1      25.234   4.372  50.927  1.00  0.00     0.014 A 
ATOM      3  C   UNL     1      24.114   5.203  50.985  1.00  0.00     0.006 A 
ATOM      4  C   UNL     1      23.509   5.509  52.193  1.00  0.00    -0.027 A 
ATOM      5  C   UNL     1      22.283   6.410  52.241  1.00  0.00     0.046 C 
ATOM      6  C   UNL     1      24.046   4.941  53.347  1.00  0.00     0.045 A 
ATOM      7  C   UNL     1      25.186   4.130  53.270  1.00  0.00     0.040 A 
ENDROOT
BRANCH   1   8
ATOM      8  C   UNL     1      26.946   2.902  52.120  1.00  0.00     0.255 C 
ATOM      9  O   UNL     1      27.635   2.870  51.129  1.00  0.00    -0.269 OA
ATOM     10  N   UNL     1      27.214   2.347  53.311  1.00  0.00    -0.322 N 
ATOM     11  H   UNL     1      26.592   2.596  54.093  1.00  0.00     0.170 HD
BRANCH  10  12
ATOM     12  C   UNL     1      28.254   1.469  53.586  1.00  0.00     0.044 A 
ATOM     13  C   UNL     1      29.564   1.719  53.106  1.00  0.00     0.052 A 
ATOM     14  C   UNL     1      28.005   0.246  54.246  1.00  0.00     0.039 A 
ATOM     15  C   UNL     1      30.619   0.846  53.386  1.00  0.00     0.049 A 
ATOM     16  C   UNL     1      29.085  -0.632  54.549  1.00  0.00     0.060 A 
ATOM     17  C   UNL     1      30.367  -0.331  54.083  1.00  0.00     0.039 A 
BRANCH  15  18
ATOM     18  N   UNL     1      31.927   1.106  52.951  1.00  0.00    -0.306 N 
ATOM     19  C   UNL     1      32.642   0.506  51.916  1.00  0.00     0.116 A 
ATOM     20  C   UNL     1      32.808   1.941  53.515  1.00  0.00     0.204 A 
ATOM     21  C   UNL     1      33.893   1.014  51.917  1.00  0.00     0.056 A 
ATOM     22  N   UNL     1      33.967   1.934  52.905  1.00  0.00    -0.242 NA
ATOM     23  C   UNL     1      35.028   0.690  50.975  1.00  0.00     0.068 C 
ENDBRANCH  15  18
BRANCH  16  24
ATOM     24  C   UNL     1      28.802  -1.891  55.303  1.00  0.00     0.416 C 
ATOM     25  F   UNL     1      27.921  -2.723  54.711  1.00  0.00    -0.166 F 
ATOM     26  F   UNL     1      29.887  -2.652  55.384  1.00  0.00    -0.166 F 
ATOM     27  F   UNL     1      28.247  -1.653  56.509  1.00  0.00    -0.166 F 
ENDBRANCH  16  24
ENDBRANCH  10  12
ENDBRANCH   1   8
BRANCH   6  28
ATOM     28  N   UNL     1      23.555   5.363  54.589  1.00  0.00    -0.324 N 
ATOM     29  H   UNL     1      22.835   4.811  55.077  1.00  0.00     0.170 HD
BRANCH  28  30
ATOM     30  C   UNL     1      24.048   6.538  55.160  1.00  0.00     0.227 A 
ATOM     31  N   UNL     1      24.121   7.753  54.632  1.00  0.00    -0.221 NA
ATOM     32  N   UNL     1      24.546   6.223  56.384  1.00  0.00    -0.213 NA
ATOM     33  C   UNL     1      24.689   8.710  55.391  1.00  0.00     0.117 A 
ATOM     34  C   UNL     1      25.129   7.200  57.088  1.00  0.00     0.077 A 
ATOM     35  C   UNL     1      25.212   8.457  56.602  1.00  0.00     0.049 A 
BRANCH  34  36
ATOM     36  C   UNL     1      25.626   6.813  58.434  1.00  0.00     0.019 A 
ATOM     37  C   UNL     1      24.754   6.666  59.525  1.00  0.00     0.013 A 
ATOM     38  C   UNL     1      27.000   6.597  58.655  1.00  0.00     0.121 A 
ATOM     39  C   UNL     1      25.278   6.328  60.766  1.00  0.00     0.021 A 
ATOM     40  N   UNL     1      27.512   6.278  59.851  1.00  0.00    -0.264 NA
ATOM     41  C   UNL     1      26.653   6.119  60.871  1.00  0.00     0.111 A 
ENDBRANCH  34  36
ENDBRANCH  28  30
ENDBRANCH   6  28
TORSDOF 7
ENDMDL
MODEL 8
REMARK VINA RESULT:   -11.458      2.048      3.067
REMARK INTER + INTRA:         -14.827
REMARK INTER:                 -13.546
REMARK INTRA:                  -1.281
REMARK CONF_INDEPENDENT:        2.088
REMARK UNBOUND:                -1.281
REMARK SMILES Cc1cn(-c2cc(NC(=O)c3ccc(C)c(Nc4nccc(-c5cccnc5)n4)c3)cc(C(F)(F)F)c2)cn1
REMARK SMILES IDX 11 1 12 2 13 3 14 4 15 5 16 6 30 7 9 8 10 9 8 10 7 12 6 13
REMARK SMILES IDX 31 14 5 15 32 16 37 17 4 18 3 19 38 20 2 21 39 22 1 23 33 24
REMARK SMILES IDX 34 25 35 26 36 27 17 28 18 30 19 31 29 32 20 33 22 34 21 35
REMARK SMILES IDX 23 36 24 37 28 38 25 39 27 40 26 41
REMARK H PARENT 8 11 17 29
ROOT
ATOM      1  C   UNL     1      26.966   2.452  52.433  1.00  0.00     0.042 A 
ATOM      2  C   UNL     1      27.109   1.078  52.190  1.00  0.00     0.014 A 
ATOM      3  C   UNL     1      27.883   0.269  53.022  1.00  0.00     0.006 A 
ATOM      4  C   UNL     1      28.608   0.806  54.074  1.00  0.00    -0.027 A 
ATOM      5  C   UNL     1      29.455  -0.088  54.969  1.00  0.00     0.046 C 
ATOM      6  C   UNL     1      28.553   2.186  54.258  1.00  0.00     0.045 A 
ATOM      7  C   UNL     1      27.750   2.977  53.427  1.00  0.00     0.040 A 
ENDROOT
BRANCH   1   8
ATOM      8  C   UNL     1      26.274   3.400  51.538  1.00  0.00     0.255 C 
ATOM      9  O   UNL     1      26.449   3.219  50.357  1.00  0.00    -0.269 OA
ATOM     10  N   UNL     1      25.345   4.183  52.108  1.00  0.00    -0.322 N 
ATOM     11  H   UNL     1      25.235   4.109  53.129  1.00  0.00     0.170 HD
BRANCH  10  12
ATOM     12  C   UNL     1      24.519   5.083  51.447  1.00  0.00     0.044 A 
ATOM     13  C   UNL     1      23.801   6.071  52.163  1.00  0.00     0.052 A 
ATOM     14  C   UNL     1      24.284   4.956  50.060  1.00  0.00     0.039 A 
ATOM     15  C   UNL     1      22.975   6.988  51.506  1.00  0.00     0.049 A 
ATOM     16  C   UNL     1      23.460   5.905  49.389  1.00  0.00     0.060 A 
ATOM     17  C   UNL     1      22.793   6.883  50.131  1.00  0.00     0.039 A 
BRANCH  15  18
ATOM     18  N   UNL     1      22.292   7.997  52.202  1.00  0.00    -0.306 N 
ATOM     19  C   UNL     1      21.345   7.873  53.217  1.00  0.00     0.116 A 
ATOM     20  C   UNL     1      22.345   9.312  51.962  1.00  0.00     0.204 A 
ATOM     21  C   UNL     1      20.895   9.109  53.527  1.00  0.00     0.056 A 
ATOM     22  N   UNL     1      21.557   9.998  52.753  1.00  0.00    -0.242 NA
ATOM     23  C   UNL     1      19.879   9.491  54.576  1.00  0.00     0.068 C 
ENDBRANCH  15  18
BRANCH  16  24
ATOM     24  C   UNL     1      23.276   5.783  47.912  1.00  0.00     0.416 C 
ATOM     25  F   UNL     1      24.362   5.359  47.236  1.00  0.00    -0.166 F 
ATOM     26  F   UNL     1      22.385   4.844  47.617  1.00  0.00    -0.166 F 
ATOM     27  F   UNL     1      22.988   6.966  47.331  1.00  0.00    -0.166 F 
ENDBRANCH  16  24
ENDBRANCH  10  12
ENDBRANCH   1   8
BRANCH   6  28
ATOM     28  N   UNL     1      29.144   2.729  55.406  1.00  0.00    -0.324 N 
ATOM     29  H   UNL     1      28.571   2.934  56.237  1.00  0.00     0.170 HD
BRANCH  28  30
ATOM     30  C   UNL     1      30.515   2.991  55.415  1.00  0.00     0.227 A 
ATOM     31  N   UNL     1      31.189   3.880  56.134  1.00  0.00    -0.221 NA
ATOM     32  N   UNL     1      31.090   2.208  54.466  1.00  0.00    -0.213 NA
ATOM     33  C   UNL     1      32.515   3.957  55.914  1.00  0.00     0.117 A 
ATOM     34  C   UNL     1      32.405   2.343  54.261  1.00  0.00     0.077 A 
ATOM     35  C   UNL     1      33.137   3.221  54.980  1.00  0.00     0.049 A 
BRANCH  34  36
ATOM     36  C   UNL     1      32.992   1.440  53.237  1.00  0.00     0.019 A 
ATOM     37  C   UNL     1      32.327   0.277  52.814  1.00  0.00     0.013 A 
ATOM     38  C   UNL     1      34.250   1.723  52.669  1.00  0.00     0.121 A 
ATOM     39  C   UNL     1      32.935  -0.543  51.872  1.00  0.00     0.021 A 
ATOM     40  N   UNL     1      34.844   0.932  51.767  1.00  0.00    -0.264 NA
ATOM     41  C   UNL     1      34.175  -0.160  51.362  1.00  0.00     0.111 A 
ENDBRANCH  34  36
ENDBRANCH  28  30
ENDBRANCH   6  28
TORSDOF 7
ENDMDL
MODEL 9
REMARK VINA RESULT:   -11.171      4.580      8.050
REMARK INTER + INTRA:         -14.288
REMARK INTER:                 -13.260
REMARK INTRA:                  -1.028
REMARK CONF_INDEPENDENT:        2.088
REMARK UNBOUND:                -1.028
REMARK SMILES Cc1cn(-c2cc(NC(=O)c3ccc(C)c(Nc4nccc(-c5cccnc5)n4)c3)cc(C(F)(F)F)c2)cn1
REMARK SMILES IDX 11 1 12 2 13 3 14 4 15 5 16 6 30 7 9 8 10 9 8 10 7 12 6 13
REMARK SMILES IDX 31 14 5 15 32 16 37 17 4 18 3 19 38 20 2 21 39 22 1 23 33 24
REMARK SMILES IDX 34 25 35 26 36 27 17 28 18 30 19 31 29 32 20 33 22 34 21 35
REMARK SMILES IDX 23 36 24 37 28 38 25 39 27 40 26 41
REMARK H PARENT 8 11 17 29
ROOT
ATOM      1  C   UNL     1      33.996  -0.539  50.754  1.00  0.00     0.042 A 
ATOM      2  C   UNL     1      34.036  -1.798  50.136  1.00  0.00     0.014 A 
ATOM      3  C   UNL     1      35.054  -2.137  49.243  1.00  0.00     0.006 A 
ATOM      4  C   UNL     1      36.017  -1.215  48.867  1.00  0.00    -0.027 A 
ATOM      5  C   UNL     1      37.116  -1.596  47.886  1.00  0.00     0.046 C 
ATOM      6  C   UNL     1      35.922   0.071  49.398  1.00  0.00     0.045 A 
ATOM      7  C   UNL     1      34.908   0.384  50.312  1.00  0.00     0.040 A 
ENDROOT
BRANCH   1   8
ATOM      8  C   UNL     1      32.894  -0.054  51.608  1.00  0.00     0.255 C 
ATOM      9  O   UNL     1      33.019   1.071  52.026  1.00  0.00    -0.269 OA
ATOM     10  N   UNL     1      31.780  -0.802  51.619  1.00  0.00    -0.322 N 
ATOM     11  H   UNL     1      31.804  -1.684  51.088  1.00  0.00     0.170 HD
BRANCH  10  12
ATOM     12  C   UNL     1      30.598  -0.495  52.281  1.00  0.00     0.044 A 
ATOM     13  C   UNL     1      29.811   0.615  51.887  1.00  0.00     0.052 A 
ATOM     14  C   UNL     1      30.216  -1.211  53.436  1.00  0.00     0.039 A 
ATOM     15  C   UNL     1      28.615   0.926  52.541  1.00  0.00     0.049 A 
ATOM     16  C   UNL     1      28.986  -0.907  54.087  1.00  0.00     0.060 A 
ATOM     17  C   UNL     1      28.225   0.178  53.647  1.00  0.00     0.039 A 
BRANCH  15  18
ATOM     18  N   UNL     1      27.808   1.998  52.132  1.00  0.00    -0.306 N 
ATOM     19  C   UNL     1      26.901   2.746  52.881  1.00  0.00     0.116 A 
ATOM     20  C   UNL     1      27.675   2.472  50.888  1.00  0.00     0.204 A 
ATOM     21  C   UNL     1      26.287   3.619  52.051  1.00  0.00     0.056 A 
ATOM     22  N   UNL     1      26.809   3.453  50.815  1.00  0.00    -0.242 NA
ATOM     23  C   UNL     1      25.242   4.651  52.398  1.00  0.00     0.068 C 
ENDBRANCH  15  18
BRANCH  16  24
ATOM     24  C   UNL     1      28.577  -1.720  55.272  1.00  0.00     0.416 C 
ATOM     25  F   UNL     1      27.690  -2.702  55.011  1.00  0.00    -0.166 F 
ATOM     26  F   UNL     1      29.606  -2.402  55.761  1.00  0.00    -0.166 F 
ATOM     27  F   UNL     1      27.956  -0.979  56.213  1.00  0.00    -0.166 F 
ENDBRANCH  16  24
ENDBRANCH  10  12
ENDBRANCH   1   8
BRANCH   6  28
ATOM     28  N   UNL     1      36.971   0.969  49.162  1.00  0.00    -0.324 N 
ATOM     29  H   UNL     1      36.773   1.922  48.825  1.00  0.00     0.170 HD
BRANCH  28  30
ATOM     30  C   UNL     1      38.287   0.561  49.387  1.00  0.00     0.227 A 
ATOM     31  N   UNL     1      38.764  -0.219  50.349  1.00  0.00    -0.221 NA
ATOM     32  N   UNL     1      39.072   1.178  48.466  1.00  0.00    -0.213 NA
ATOM     33  C   UNL     1      40.096  -0.419  50.361  1.00  0.00     0.117 A 
ATOM     34  C   UNL     1      40.392   0.973  48.538  1.00  0.00     0.077 A 
ATOM     35  C   UNL     1      40.925   0.174  49.487  1.00  0.00     0.049 A 
BRANCH  34  36
ATOM     36  C   UNL     1      41.204   1.641  47.487  1.00  0.00     0.019 A 
ATOM     37  C   UNL     1      40.650   2.001  46.248  1.00  0.00     0.013 A 
ATOM     38  C   UNL     1      42.567   1.920  47.705  1.00  0.00     0.121 A 
ATOM     39  C   UNL     1      41.463   2.600  45.294  1.00  0.00     0.021 A 
ATOM     40  N   UNL     1      43.357   2.490  46.786  1.00  0.00    -0.264 NA
ATOM     41  C   UNL     1      42.796   2.847  45.620  1.00  0.00     0.111 A 
ENDBRANCH  34  36
ENDBRANCH  28  30
ENDBRANCH   6  28
TORSDOF 7
ENDMDL
MODEL 10
REMARK VINA RESULT:   -11.035      1.623      2.409
REMARK INTER + INTRA:         -14.290
REMARK INTER:                 -13.123
REMARK INTRA:                  -1.166
REMARK CONF_INDEPENDENT:        2.088
REMARK UNBOUND:                -1.166
REMARK SMILES Cc1cn(-c2cc(NC(=O)c3ccc(C)c(Nc4nccc(-c5cccnc5)n4)c3)cc(C(F)(F)F)c2)cn1
REMARK SMILES IDX 11 1 12 2 13 3 14 4 15 5 16 6 30 7 9 8 10 9 8 10 7 12 6 13
REMARK SMILES IDX 31 14 5 15 32 16 37 17 4 18 3 19 38 20 2 21 39 22 1 23 33 24
REMARK SMILES IDX 34 25 35 26 36 27 17 28 18 30 19 31 29 32 20 33 22 34 21 35
REMARK SMILES IDX 23 36 24 37 28 38 25 39 27 40 26 41
REMARK H PARENT 8 11 17 29
ROOT
ATOM      1  C   UNL     1      27.039   2.375  52.457  1.00  0.00     0.042 A 
ATOM      2  C   UNL     1      27.142   1.241  51.637  1.00  0.00     0.014 A 
ATOM      3  C   UNL     1      28.053   0.222  51.918  1.00  0.00     0.006 A 
ATOM      4  C   UNL     1      28.949   0.328  52.969  1.00  0.00    -0.027 A 
ATOM      5  C   UNL     1      29.943  -0.788  53.259  1.00  0.00     0.046 C 
ATOM      6  C   UNL     1      28.922   1.499  53.725  1.00  0.00     0.045 A 
ATOM      7  C   UNL     1      27.983   2.499  53.443  1.00  0.00     0.040 A 
ENDROOT
BRANCH   1   8
ATOM      8  C   UNL     1      26.198   3.553  52.166  1.00  0.00     0.255 C 
ATOM      9  O   UNL     1      26.132   3.868  51.003  1.00  0.00    -0.269 OA
ATOM     10  N   UNL     1      25.413   3.981  53.166  1.00  0.00    -0.322 N 
ATOM     11  H   UNL     1      25.507   3.501  54.072  1.00  0.00     0.170 HD
BRANCH  10  12
ATOM     12  C   UNL     1      24.487   5.013  53.091  1.00  0.00     0.044 A 
ATOM     13  C   UNL     1      23.769   5.431  54.239  1.00  0.00     0.052 A 
ATOM     14  C   UNL     1      24.151   5.588  51.846  1.00  0.00     0.039 A 
ATOM     15  C   UNL     1      22.841   6.475  54.176  1.00  0.00     0.049 A 
ATOM     16  C   UNL     1      23.223   6.666  51.787  1.00  0.00     0.060 A 
ATOM     17  C   UNL     1      22.559   7.067  52.949  1.00  0.00     0.039 A 
BRANCH  15  18
ATOM     18  N   UNL     1      22.156   6.923  55.315  1.00  0.00    -0.306 N 
ATOM     19  C   UNL     1      22.573   6.921  56.645  1.00  0.00     0.116 A 
ATOM     20  C   UNL     1      20.897   7.371  55.368  1.00  0.00     0.204 A 
ATOM     21  C   UNL     1      21.552   7.368  57.408  1.00  0.00     0.056 A 
ATOM     22  N   UNL     1      20.523   7.675  56.587  1.00  0.00    -0.242 NA
ATOM     23  C   UNL     1      21.526   7.562  58.905  1.00  0.00     0.068 C 
ENDBRANCH  15  18
BRANCH  16  24
ATOM     24  C   UNL     1      22.932   7.296  50.464  1.00  0.00     0.416 C 
ATOM     25  F   UNL     1      23.952   7.270  49.584  1.00  0.00    -0.166 F 
ATOM     26  F   UNL     1      21.989   6.625  49.813  1.00  0.00    -0.166 F 
ATOM     27  F   UNL     1      22.646   8.610  50.573  1.00  0.00    -0.166 F 
ENDBRANCH  16  24
ENDBRANCH  10  12
ENDBRANCH   1   8
BRANCH   6  28
ATOM     28  N   UNL     1      29.702   1.561  54.887  1.00  0.00    -0.324 N 
ATOM     29  H   UNL     1      29.313   1.255  55.791  1.00  0.00     0.170 HD
BRANCH  28  30
ATOM     30  C   UNL     1      31.011   2.039  54.811  1.00  0.00     0.227 A 
ATOM     31  N   UNL     1      31.585   3.010  55.511  1.00  0.00    -0.221 NA
ATOM     32  N   UNL     1      31.633   1.379  53.800  1.00  0.00    -0.213 NA
ATOM     33  C   UNL     1      32.863   3.304  55.203  1.00  0.00     0.117 A 
ATOM     34  C   UNL     1      32.892   1.728  53.510  1.00  0.00     0.077 A 
ATOM     35  C   UNL     1      33.525   2.697  54.205  1.00  0.00     0.049 A 
BRANCH  34  36
ATOM     36  C   UNL     1      33.539   0.952  52.420  1.00  0.00     0.019 A 
ATOM     37  C   UNL     1      34.650   1.450  51.722  1.00  0.00     0.013 A 
ATOM     38  C   UNL     1      33.038  -0.311  52.046  1.00  0.00     0.121 A 
ATOM     39  C   UNL     1      35.198   0.692  50.696  1.00  0.00     0.021 A 
ATOM     40  N   UNL     1      33.557  -1.043  51.053  1.00  0.00    -0.264 NA
ATOM     41  C   UNL     1      34.635  -0.553  50.419  1.00  0.00     0.111 A 
ENDBRANCH  34  36
ENDBRANCH  28  30
ENDBRANCH   6  28
TORSDOF 7
ENDMDL
MODEL 11
REMARK VINA RESULT:   -11.000      3.866     11.715
REMARK INTER + INTRA:         -14.193
REMARK INTER:                 -13.088
REMARK INTRA:                  -1.105
REMARK CONF_INDEPENDENT:        2.088
REMARK UNBOUND:                -1.105
REMARK SMILES Cc1cn(-c2cc(NC(=O)c3ccc(C)c(Nc4nccc(-c5cccnc5)n4)c3)cc(C(F)(F)F)c2)cn1
REMARK SMILES IDX 11 1 12 2 13 3 14 4 15 5 16 6 30 7 9 8 10 9 8 10 7 12 6 13
REMARK SMILES IDX 31 14 5 15 32 16 37 17 4 18 3 19 38 20 2 21 39 22 1 23 33 24
REMARK SMILES IDX 34 25 35 26 36 27 17 28 18 30 19 31 29 32 20 33 22 34 21 35
REMARK SMILES IDX 23 36 24 37 28 38 25 39 27 40 26 41
REMARK H PARENT 8 11 17 29
ROOT
ATOM      1  C   UNL     1      25.710   3.550  51.861  1.00  0.00     0.042 A 
ATOM      2  C   UNL     1      24.857   3.403  50.757  1.00  0.00     0.014 A 
ATOM      3  C   UNL     1      23.527   3.825  50.805  1.00  0.00     0.006 A 
ATOM      4  C   UNL     1      22.975   4.328  51.972  1.00  0.00    -0.027 A 
ATOM      5  C   UNL     1      21.521   4.777  52.012  1.00  0.00     0.046 C 
ATOM      6  C   UNL     1      23.789   4.380  53.102  1.00  0.00     0.045 A 
ATOM      7  C   UNL     1      25.128   3.975  53.027  1.00  0.00     0.040 A 
ENDROOT
BRANCH   1   8
ATOM      8  C   UNL     1      27.086   3.020  51.940  1.00  0.00     0.255 C 
ATOM      9  O   UNL     1      27.642   2.862  50.881  1.00  0.00    -0.269 OA
ATOM     10  N   UNL     1      27.647   3.011  53.159  1.00  0.00    -0.322 N 
ATOM     11  H   UNL     1      27.057   3.310  53.948  1.00  0.00     0.170 HD
BRANCH  10  12
ATOM     12  C   UNL     1      28.952   2.636  53.453  1.00  0.00     0.044 A 
ATOM     13  C   UNL     1      29.631   1.680  52.657  1.00  0.00     0.052 A 
ATOM     14  C   UNL     1      29.588   3.108  54.622  1.00  0.00     0.039 A 
ATOM     15  C   UNL     1      30.947   1.304  52.940  1.00  0.00     0.049 A 
ATOM     16  C   UNL     1      30.937   2.740  54.895  1.00  0.00     0.060 A 
ATOM     17  C   UNL     1      31.580   1.818  54.067  1.00  0.00     0.039 A 
BRANCH  15  18
ATOM     18  N   UNL     1      31.642   0.390  52.133  1.00  0.00    -0.306 N 
ATOM     19  C   UNL     1      31.213  -0.264  50.980  1.00  0.00     0.116 A 
ATOM     20  C   UNL     1      32.857  -0.120  52.366  1.00  0.00     0.204 A 
ATOM     21  C   UNL     1      32.186  -1.115  50.590  1.00  0.00     0.056 A 
ATOM     22  N   UNL     1      33.220  -0.986  51.451  1.00  0.00    -0.242 NA
ATOM     23  C   UNL     1      32.196  -2.027  49.387  1.00  0.00     0.068 C 
ENDBRANCH  15  18
BRANCH  16  24
ATOM     24  C   UNL     1      31.606   3.303  56.107  1.00  0.00     0.416 C 
ATOM     25  F   UNL     1      31.650   2.474  57.170  1.00  0.00    -0.166 F 
ATOM     26  F   UNL     1      32.895   3.526  55.880  1.00  0.00    -0.166 F 
ATOM     27  F   UNL     1      30.970   4.392  56.586  1.00  0.00    -0.166 F 
ENDBRANCH  16  24
ENDBRANCH  10  12
ENDBRANCH   1   8
BRANCH   6  28
ATOM     28  N   UNL     1      23.305   5.032  54.243  1.00  0.00    -0.324 N 
ATOM     29  H   UNL     1      22.323   4.917  54.530  1.00  0.00     0.170 HD
BRANCH  28  30
ATOM     30  C   UNL     1      24.165   5.841  54.989  1.00  0.00     0.227 A 
ATOM     31  N   UNL     1      25.442   6.126  54.766  1.00  0.00    -0.221 NA
ATOM     32  N   UNL     1      23.486   6.261  56.088  1.00  0.00    -0.213 NA
ATOM     33  C   UNL     1      26.056   6.906  55.676  1.00  0.00     0.117 A 
ATOM     34  C   UNL     1      24.147   7.008  56.980  1.00  0.00     0.077 A 
ATOM     35  C   UNL     1      25.442   7.339  56.789  1.00  0.00     0.049 A 
BRANCH  34  36
ATOM     36  C   UNL     1      23.351   7.471  58.146  1.00  0.00     0.019 A 
ATOM     37  C   UNL     1      23.954   7.760  59.380  1.00  0.00     0.013 A 
ATOM     38  C   UNL     1      21.954   7.619  58.044  1.00  0.00     0.121 A 
ATOM     39  C   UNL     1      23.157   8.165  60.443  1.00  0.00     0.021 A 
ATOM     40  N   UNL     1      21.179   8.002  59.067  1.00  0.00    -0.264 NA
ATOM     41  C   UNL     1      21.785   8.296  60.229  1.00  0.00     0.111 A 
ENDBRANCH  34  36
ENDBRANCH  28  30
ENDBRANCH   6  28
TORSDOF 7
ENDMDL
MODEL 12
REMARK VINA RESULT:   -10.905      8.394     15.256
REMARK INTER + INTRA:         -14.289
REMARK INTER:                 -12.993
REMARK INTRA:                  -1.296
REMARK CONF_INDEPENDENT:        2.088
REMARK UNBOUND:                -1.296
REMARK SMILES Cc1cn(-c2cc(NC(=O)c3ccc(C)c(Nc4nccc(-c5cccnc5)n4)c3)cc(C(F)(F)F)c2)cn1
REMARK SMILES IDX 11 1 12 2 13 3 14 4 15 5 16 6 30 7 9 8 10 9 8 10 7 12 6 13
REMARK SMILES IDX 31 14 5 15 32 16 37 17 4 18 3 19 38 20 2 21 39 22 1 23 33 24
REMARK SMILES IDX 34 25 35 26 36 27 17 28 18 30 19 31 29 32 20 33 22 34 21 35
REMARK SMILES IDX 23 36 24 37 28 38 25 39 27 40 26 41
REMARK H PARENT 8 11 17 29
ROOT
ATOM      1  C   UNL     1      36.002  -1.715  49.312  1.00  0.00     0.042 A 
ATOM      2  C   UNL     1      35.199  -2.860  49.200  1.00  0.00     0.014 A 
ATOM      3  C   UNL     1      33.824  -2.811  49.436  1.00  0.00     0.006 A 
ATOM      4  C   UNL     1      33.212  -1.647  49.872  1.00  0.00    -0.027 A 
ATOM      5  C   UNL     1      31.713  -1.609  50.133  1.00  0.00     0.046 C 
ATOM      6  C   UNL     1      34.021  -0.532  50.085  1.00  0.00     0.045 A 
ATOM      7  C   UNL     1      35.394  -0.595  49.818  1.00  0.00     0.040 A 
ENDROOT
BRANCH   1   8
ATOM      8  C   UNL     1      37.474  -1.703  49.205  1.00  0.00     0.255 C 
ATOM      9  O   UNL     1      38.063  -1.373  50.206  1.00  0.00    -0.269 OA
ATOM     10  N   UNL     1      37.993  -2.291  48.117  1.00  0.00    -0.322 N 
ATOM     11  H   UNL     1      37.328  -2.642  47.413  1.00  0.00     0.170 HD
BRANCH  10  12
ATOM     12  C   UNL     1      39.345  -2.468  47.852  1.00  0.00     0.044 A 
ATOM     13  C   UNL     1      39.910  -2.028  46.629  1.00  0.00     0.052 A 
ATOM     14  C   UNL     1      40.161  -3.199  48.743  1.00  0.00     0.039 A 
ATOM     15  C   UNL     1      41.271  -2.193  46.358  1.00  0.00     0.049 A 
ATOM     16  C   UNL     1      41.552  -3.346  48.474  1.00  0.00     0.060 A 
ATOM     17  C   UNL     1      42.075  -2.870  47.270  1.00  0.00     0.039 A 
BRANCH  15  18
ATOM     18  N   UNL     1      41.849  -1.723  45.169  1.00  0.00    -0.306 N 
ATOM     19  C   UNL     1      42.149  -0.413  44.799  1.00  0.00     0.116 A 
ATOM     20  C   UNL     1      42.152  -2.447  44.085  1.00  0.00     0.204 A 
ATOM     21  C   UNL     1      42.615  -0.429  43.531  1.00  0.00     0.056 A 
ATOM     22  N   UNL     1      42.639  -1.714  43.113  1.00  0.00    -0.242 NA
ATOM     23  C   UNL     1      43.088   0.740  42.701  1.00  0.00     0.068 C 
ENDBRANCH  15  18
BRANCH  16  24
ATOM     24  C   UNL     1      42.405  -4.072  49.464  1.00  0.00     0.416 C 
ATOM     25  F   UNL     1      42.173  -5.397  49.552  1.00  0.00    -0.166 F 
ATOM     26  F   UNL     1      43.683  -4.040  49.107  1.00  0.00    -0.166 F 
ATOM     27  F   UNL     1      42.211  -3.636  50.726  1.00  0.00    -0.166 F 
ENDBRANCH  16  24
ENDBRANCH  10  12
ENDBRANCH   1   8
BRANCH   6  28
ATOM     28  N   UNL     1      33.405   0.695  50.366  1.00  0.00    -0.324 N 
ATOM     29  H   UNL     1      33.098   1.310  49.600  1.00  0.00     0.170 HD
BRANCH  28  30
ATOM     30  C   UNL     1      33.211   1.076  51.695  1.00  0.00     0.227 A 
ATOM     31  N   UNL     1      33.899   1.950  52.420  1.00  0.00    -0.221 NA
ATOM     32  N   UNL     1      32.199   0.322  52.197  1.00  0.00    -0.213 NA
ATOM     33  C   UNL     1      33.525   2.100  53.704  1.00  0.00     0.117 A 
ATOM     34  C   UNL     1      31.884   0.484  53.487  1.00  0.00     0.077 A 
ATOM     35  C   UNL     1      32.543   1.373  54.261  1.00  0.00     0.049 A 
BRANCH  34  36
ATOM     36  C   UNL     1      30.748  -0.339  53.978  1.00  0.00     0.019 A 
ATOM     37  C   UNL     1      29.648   0.241  54.631  1.00  0.00     0.013 A 
ATOM     38  C   UNL     1      30.753  -1.738  53.813  1.00  0.00     0.121 A 
ATOM     39  C   UNL     1      28.627  -0.580  55.091  1.00  0.00     0.021 A 
ATOM     40  N   UNL     1      29.775  -2.535  54.261  1.00  0.00    -0.264 NA
ATOM     41  C   UNL     1      28.723  -1.951  54.859  1.00  0.00     0.111 A 
ENDBRANCH  34  36
ENDBRANCH  28  30
ENDBRANCH   6  28
TORSDOF 7
ENDMDL
MODEL 13
REMARK VINA RESULT:   -10.854      3.582     12.140
REMARK INTER + INTRA:         -14.245
REMARK INTER:                 -12.942
REMARK INTRA:                  -1.303
REMARK CONF_INDEPENDENT:        2.088
REMARK UNBOUND:                -1.303
REMARK SMILES Cc1cn(-c2cc(NC(=O)c3ccc(C)c(Nc4nccc(-c5cccnc5)n4)c3)cc(C(F)(F)F)c2)cn1
REMARK SMILES IDX 11 1 12 2 13 3 14 4 15 5 16 6 30 7 9 8 10 9 8 10 7 12 6 13
REMARK SMILES IDX 31 14 5 15 32 16 37 17 4 18 3 19 38 20 2 21 39 22 1 23 33 24
REMARK SMILES IDX 34 25 35 26 36 27 17 28 18 30 19 31 29 32 20 33 22 34 21 35
REMARK SMILES IDX 23 36 24 37 28 38 25 39 27 40 26 41
REMARK H PARENT 8 11 17 29
ROOT
ATOM      1  C   UNL     1      25.546   3.709  51.885  1.00  0.00     0.042 A 
ATOM      2  C   UNL     1      24.777   3.839  50.719  1.00  0.00     0.014 A 
ATOM      3  C   UNL     1      23.458   4.295  50.765  1.00  0.00     0.006 A 
ATOM      4  C   UNL     1      22.830   4.558  51.972  1.00  0.00    -0.027 A 
ATOM      5  C   UNL     1      21.390   5.048  52.007  1.00  0.00     0.046 C 
ATOM      6  C   UNL     1      23.556   4.332  53.140  1.00  0.00     0.045 A 
ATOM      7  C   UNL     1      24.886   3.898  53.072  1.00  0.00     0.040 A 
ENDROOT
BRANCH   1   8
ATOM      8  C   UNL     1      26.897   3.118  51.943  1.00  0.00     0.255 C 
ATOM      9  O   UNL     1      27.410   2.892  50.874  1.00  0.00    -0.269 OA
ATOM     10  N   UNL     1      27.498   3.131  53.142  1.00  0.00    -0.322 N 
ATOM     11  H   UNL     1      26.949   3.488  53.936  1.00  0.00     0.170 HD
BRANCH  10  12
ATOM     12  C   UNL     1      28.793   2.706  53.410  1.00  0.00     0.044 A 
ATOM     13  C   UNL     1      29.410   1.707  52.617  1.00  0.00     0.052 A 
ATOM     14  C   UNL     1      29.479   3.173  54.552  1.00  0.00     0.039 A 
ATOM     15  C   UNL     1      30.716   1.280  52.873  1.00  0.00     0.049 A 
ATOM     16  C   UNL     1      30.818   2.753  54.799  1.00  0.00     0.060 A 
ATOM     17  C   UNL     1      31.399   1.788  53.973  1.00  0.00     0.039 A 
BRANCH  15  18
ATOM     18  N   UNL     1      31.350   0.323  52.067  1.00  0.00    -0.306 N 
ATOM     19  C   UNL     1      32.713   0.092  51.890  1.00  0.00     0.116 A 
ATOM     20  C   UNL     1      30.761  -0.525  51.216  1.00  0.00     0.204 A 
ATOM     21  C   UNL     1      32.860  -0.873  50.956  1.00  0.00     0.056 A 
ATOM     22  N   UNL     1      31.627  -1.269  50.570  1.00  0.00    -0.242 NA
ATOM     23  C   UNL     1      34.143  -1.478  50.439  1.00  0.00     0.068 C 
ENDBRANCH  15  18
BRANCH  16  24
ATOM     24  C   UNL     1      31.542   3.309  55.981  1.00  0.00     0.416 C 
ATOM     25  F   UNL     1      31.650   2.469  57.030  1.00  0.00    -0.166 F 
ATOM     26  F   UNL     1      32.815   3.551  55.691  1.00  0.00    -0.166 F 
ATOM     27  F   UNL     1      30.920   4.386  56.505  1.00  0.00    -0.166 F 
ENDBRANCH  16  24
ENDBRANCH  10  12
ENDBRANCH   1   8
BRANCH   6  28
ATOM     28  N   UNL     1      23.002   4.743  54.359  1.00  0.00    -0.324 N 
ATOM     29  H   UNL     1      22.455   4.083  54.929  1.00  0.00     0.170 HD
BRANCH  28  30
ATOM     30  C   UNL     1      23.198   6.054  54.795  1.00  0.00     0.227 A 
ATOM     31  N   UNL     1      24.166   6.541  55.561  1.00  0.00    -0.221 NA
ATOM     32  N   UNL     1      22.148   6.795  54.358  1.00  0.00    -0.213 NA
ATOM     33  C   UNL     1      24.093   7.849  55.871  1.00  0.00     0.117 A 
ATOM     34  C   UNL     1      22.102   8.083  54.718  1.00  0.00     0.077 A 
ATOM     35  C   UNL     1      23.073   8.629  55.482  1.00  0.00     0.049 A 
BRANCH  34  36
ATOM     36  C   UNL     1      20.952   8.859  54.185  1.00  0.00     0.019 A 
ATOM     37  C   UNL     1      19.627   8.521  54.502  1.00  0.00     0.013 A 
ATOM     38  C   UNL     1      21.165   9.955  53.326  1.00  0.00     0.121 A 
ATOM     39  C   UNL     1      18.590   9.266  53.954  1.00  0.00     0.021 A 
ATOM     40  N   UNL     1      20.170  10.673  52.789  1.00  0.00    -0.264 NA
ATOM     41  C   UNL     1      18.913  10.343  53.130  1.00  0.00     0.111 A 
ENDBRANCH  34  36
ENDBRANCH  28  30
ENDBRANCH   6  28
TORSDOF 7
ENDMDL
MODEL 14
REMARK VINA RESULT:   -10.813      3.609     12.064
REMARK INTER + INTRA:         -14.248
REMARK INTER:                 -12.901
REMARK INTRA:                  -1.347
REMARK CONF_INDEPENDENT:        2.088
REMARK UNBOUND:                -1.347
REMARK SMILES Cc1cn(-c2cc(NC(=O)c3ccc(C)c(Nc4nccc(-c5cccnc5)n4)c3)cc(C(F)(F)F)c2)cn1
REMARK SMILES IDX 11 1 12 2 13 3 14 4 15 5 16 6 30 7 9 8 10 9 8 10 7 12 6 13
REMARK SMILES IDX 31 14 5 15 32 16 37 17 4 18 3 19 38 20 2 21 39 22 1 23 33 24
REMARK SMILES IDX 34 25 35 26 36 27 17 28 18 30 19 31 29 32 20 33 22 34 21 35
REMARK SMILES IDX 23 36 24 37 28 38 25 39 27 40 26 41
REMARK H PARENT 8 11 17 29
ROOT
ATOM      1  C   UNL     1      26.378   3.376  51.540  1.00  0.00     0.042 A 
ATOM      2  C   UNL     1      25.699   3.600  50.334  1.00  0.00     0.014 A 
ATOM      3  C   UNL     1      24.431   4.185  50.311  1.00  0.00     0.006 A 
ATOM      4  C   UNL     1      23.760   4.490  51.484  1.00  0.00    -0.027 A 
ATOM      5  C   UNL     1      22.375   5.120  51.445  1.00  0.00     0.046 C 
ATOM      6  C   UNL     1      24.387   4.173  52.689  1.00  0.00     0.045 A 
ATOM      7  C   UNL     1      25.670   3.610  52.690  1.00  0.00     0.040 A 
ENDROOT
BRANCH   1   8
ATOM      8  C   UNL     1      27.659   2.651  51.664  1.00  0.00     0.255 C 
ATOM      9  O   UNL     1      28.650   3.315  51.481  1.00  0.00    -0.269 OA
ATOM     10  N   UNL     1      27.595   1.426  52.206  1.00  0.00    -0.322 N 
ATOM     11  H   UNL     1      26.658   1.061  52.429  1.00  0.00     0.170 HD
BRANCH  10  12
ATOM     12  C   UNL     1      28.677   0.603  52.493  1.00  0.00     0.044 A 
ATOM     13  C   UNL     1      29.799   0.550  51.629  1.00  0.00     0.052 A 
ATOM     14  C   UNL     1      28.631  -0.289  53.587  1.00  0.00     0.039 A 
ATOM     15  C   UNL     1      30.896  -0.268  51.914  1.00  0.00     0.049 A 
ATOM     16  C   UNL     1      29.759  -1.104  53.888  1.00  0.00     0.060 A 
ATOM     17  C   UNL     1      30.858  -1.103  53.026  1.00  0.00     0.039 A 
BRANCH  15  18
ATOM     18  N   UNL     1      32.030  -0.296  51.088  1.00  0.00    -0.306 N 
ATOM     19  C   UNL     1      32.429  -1.277  50.182  1.00  0.00     0.116 A 
ATOM     20  C   UNL     1      33.029   0.594  51.068  1.00  0.00     0.204 A 
ATOM     21  C   UNL     1      33.629  -0.920  49.674  1.00  0.00     0.056 A 
ATOM     22  N   UNL     1      33.972   0.270  50.216  1.00  0.00    -0.242 NA
ATOM     23  C   UNL     1      34.456  -1.650  48.644  1.00  0.00     0.068 C 
ENDBRANCH  15  18
BRANCH  16  24
ATOM     24  C   UNL     1      29.706  -1.994  55.087  1.00  0.00     0.416 C 
ATOM     25  F   UNL     1      28.821  -1.623  56.033  1.00  0.00    -0.166 F 
ATOM     26  F   UNL     1      29.271  -3.206  54.763  1.00  0.00    -0.166 F 
ATOM     27  F   UNL     1      30.879  -2.028  55.752  1.00  0.00    -0.166 F 
ENDBRANCH  16  24
ENDBRANCH  10  12
ENDBRANCH   1   8
BRANCH   6  28
ATOM     28  N   UNL     1      23.803   4.618  53.882  1.00  0.00    -0.324 N 
ATOM     29  H   UNL     1      23.132   4.021  54.385  1.00  0.00     0.170 HD
BRANCH  28  30
ATOM     30  C   UNL     1      24.138   5.878  54.382  1.00  0.00     0.227 A 
ATOM     31  N   UNL     1      25.171   6.224  55.141  1.00  0.00    -0.221 NA
ATOM     32  N   UNL     1      23.152   6.740  54.023  1.00  0.00    -0.213 NA
ATOM     33  C   UNL     1      25.234   7.513  55.525  1.00  0.00     0.117 A 
ATOM     34  C   UNL     1      23.243   8.003  54.455  1.00  0.00     0.077 A 
ATOM     35  C   UNL     1      24.283   8.408  55.214  1.00  0.00     0.049 A 
BRANCH  34  36
ATOM     36  C   UNL     1      22.158   8.914  54.006  1.00  0.00     0.019 A 
ATOM     37  C   UNL     1      20.819   8.496  53.957  1.00  0.00     0.013 A 
ATOM     38  C   UNL     1      22.452  10.230  53.599  1.00  0.00     0.121 A 
ATOM     39  C   UNL     1      19.850   9.383  53.505  1.00  0.00     0.021 A 
ATOM     40  N   UNL     1      21.525  11.088  53.154  1.00  0.00    -0.264 NA
ATOM     41  C   UNL     1      20.248  10.670  53.143  1.00  0.00     0.111 A 
ENDBRANCH  34  36
ENDBRANCH  28  30
ENDBRANCH   6  28
TORSDOF 7
ENDMDL
MODEL 15
REMARK VINA RESULT:   -10.789      2.912      4.350
REMARK INTER + INTRA:         -14.046
REMARK INTER:                 -12.877
REMARK INTRA:                  -1.170
REMARK CONF_INDEPENDENT:        2.088
REMARK UNBOUND:                -1.170
REMARK SMILES Cc1cn(-c2cc(NC(=O)c3ccc(C)c(Nc4nccc(-c5cccnc5)n4)c3)cc(C(F)(F)F)c2)cn1
REMARK SMILES IDX 11 1 12 2 13 3 14 4 15 5 16 6 30 7 9 8 10 9 8 10 7 12 6 13
REMARK SMILES IDX 31 14 5 15 32 16 37 17 4 18 3 19 38 20 2 21 39 22 1 23 33 24
REMARK SMILES IDX 34 25 35 26 36 27 17 28 18 30 19 31 29 32 20 33 22 34 21 35
REMARK SMILES IDX 23 36 24 37 28 38 25 39 27 40 26 41
REMARK H PARENT 8 11 17 29
ROOT
ATOM      1  C   UNL     1      28.336   2.454  52.718  1.00  0.00     0.042 A 
ATOM      2  C   UNL     1      27.989   2.446  54.077  1.00  0.00     0.014 A 
ATOM      3  C   UNL     1      28.844   1.912  55.043  1.00  0.00     0.006 A 
ATOM      4  C   UNL     1      30.033   1.295  54.688  1.00  0.00    -0.027 A 
ATOM      5  C   UNL     1      30.952   0.711  55.751  1.00  0.00     0.046 C 
ATOM      6  C   UNL     1      30.335   1.208  53.329  1.00  0.00     0.045 A 
ATOM      7  C   UNL     1      29.475   1.772  52.378  1.00  0.00     0.040 A 
ENDROOT
BRANCH   1   8
ATOM      8  C   UNL     1      27.443   2.879  51.622  1.00  0.00     0.255 C 
ATOM      9  O   UNL     1      27.907   2.789  50.511  1.00  0.00    -0.269 OA
ATOM     10  N   UNL     1      26.157   3.074  51.949  1.00  0.00    -0.322 N 
ATOM     11  H   UNL     1      25.907   2.977  52.943  1.00  0.00     0.170 HD
BRANCH  10  12
ATOM     12  C   UNL     1      25.131   3.394  51.068  1.00  0.00     0.044 A 
ATOM     13  C   UNL     1      24.408   2.378  50.394  1.00  0.00     0.052 A 
ATOM     14  C   UNL     1      24.866   4.740  50.734  1.00  0.00     0.039 A 
ATOM     15  C   UNL     1      23.368   2.690  49.514  1.00  0.00     0.049 A 
ATOM     16  C   UNL     1      23.791   5.055  49.854  1.00  0.00     0.060 A 
ATOM     17  C   UNL     1      23.084   4.023  49.234  1.00  0.00     0.039 A 
BRANCH  15  18
ATOM     18  N   UNL     1      22.619   1.691  48.874  1.00  0.00    -0.306 N 
ATOM     19  C   UNL     1      22.496   1.427  47.511  1.00  0.00     0.116 A 
ATOM     20  C   UNL     1      21.778   0.826  49.452  1.00  0.00     0.204 A 
ATOM     21  C   UNL     1      21.602   0.426  47.354  1.00  0.00     0.056 A 
ATOM     22  N   UNL     1      21.189   0.042  48.583  1.00  0.00    -0.242 NA
ATOM     23  C   UNL     1      21.150  -0.222  46.068  1.00  0.00     0.068 C 
ENDBRANCH  15  18
BRANCH  16  24
ATOM     24  C   UNL     1      23.494   6.491  49.564  1.00  0.00     0.416 C 
ATOM     25  F   UNL     1      24.053   6.972  48.436  1.00  0.00    -0.166 F 
ATOM     26  F   UNL     1      22.200   6.672  49.328  1.00  0.00    -0.166 F 
ATOM     27  F   UNL     1      23.963   7.315  50.523  1.00  0.00    -0.166 F 
ENDBRANCH  16  24
ENDBRANCH  10  12
ENDBRANCH   1   8
BRANCH   6  28
ATOM     28  N   UNL     1      31.600   0.737  52.957  1.00  0.00    -0.324 N 
ATOM     29  H   UNL     1      32.430   0.980  53.516  1.00  0.00     0.170 HD
BRANCH  28  30
ATOM     30  C   UNL     1      31.727  -0.065  51.821  1.00  0.00     0.227 A 
ATOM     31  N   UNL     1      30.789  -0.738  51.168  1.00  0.00    -0.221 NA
ATOM     32  N   UNL     1      33.046  -0.122  51.503  1.00  0.00    -0.213 NA
ATOM     33  C   UNL     1      31.194  -1.477  50.117  1.00  0.00     0.117 A 
ATOM     34  C   UNL     1      33.404  -0.894  50.470  1.00  0.00     0.077 A 
ATOM     35  C   UNL     1      32.484  -1.585  49.763  1.00  0.00     0.049 A 
BRANCH  34  36
ATOM     36  C   UNL     1      34.854  -0.895  50.141  1.00  0.00     0.019 A 
ATOM     37  C   UNL     1      35.360  -1.625  49.054  1.00  0.00     0.013 A 
ATOM     38  C   UNL     1      35.767  -0.167  50.929  1.00  0.00     0.121 A 
ATOM     39  C   UNL     1      36.728  -1.609  48.809  1.00  0.00     0.021 A 
ATOM     40  N   UNL     1      37.086  -0.154  50.702  1.00  0.00    -0.264 NA
ATOM     41  C   UNL     1      37.541  -0.841  49.641  1.00  0.00     0.111 A 
ENDBRANCH  34  36
ENDBRANCH  28  30
ENDBRANCH   6  28
TORSDOF 7
ENDMDL
MODEL 16
REMARK VINA RESULT:   -10.779      4.567     13.475
REMARK INTER + INTRA:         -14.209
REMARK INTER:                 -12.868
REMARK INTRA:                  -1.341
REMARK CONF_INDEPENDENT:        2.088
REMARK UNBOUND:                -1.341
REMARK SMILES Cc1cn(-c2cc(NC(=O)c3ccc(C)c(Nc4nccc(-c5cccnc5)n4)c3)cc(C(F)(F)F)c2)cn1
REMARK SMILES IDX 11 1 12 2 13 3 14 4 15 5 16 6 30 7 9 8 10 9 8 10 7 12 6 13
REMARK SMILES IDX 31 14 5 15 32 16 37 17 4 18 3 19 38 20 2 21 39 22 1 23 33 24
REMARK SMILES IDX 34 25 35 26 36 27 17 28 18 30 19 31 29 32 20 33 22 34 21 35
REMARK SMILES IDX 23 36 24 37 28 38 25 39 27 40 26 41
REMARK H PARENT 8 11 17 29
ROOT
ATOM      1  C   UNL     1      21.179   7.164  54.212  1.00  0.00     0.042 A 
ATOM      2  C   UNL     1      21.009   7.330  55.595  1.00  0.00     0.014 A 
ATOM      3  C   UNL     1      20.297   8.412  56.115  1.00  0.00     0.006 A 
ATOM      4  C   UNL     1      19.801   9.409  55.290  1.00  0.00    -0.027 A 
ATOM      5  C   UNL     1      19.033  10.587  55.871  1.00  0.00     0.046 C 
ATOM      6  C   UNL     1      20.056   9.303  53.923  1.00  0.00     0.045 A 
ATOM      7  C   UNL     1      20.751   8.197  53.419  1.00  0.00     0.040 A 
ENDROOT
BRANCH   1   8
ATOM      8  C   UNL     1      22.020   6.126  53.584  1.00  0.00     0.255 C 
ATOM      9  O   UNL     1      21.897   5.015  54.039  1.00  0.00    -0.269 OA
ATOM     10  N   UNL     1      22.625   6.468  52.437  1.00  0.00    -0.322 N 
ATOM     11  H   UNL     1      22.512   7.442  52.121  1.00  0.00     0.170 HD
BRANCH  10  12
ATOM     12  C   UNL     1      23.392   5.630  51.637  1.00  0.00     0.044 A 
ATOM     13  C   UNL     1      24.512   4.943  52.168  1.00  0.00     0.052 A 
ATOM     14  C   UNL     1      23.145   5.538  50.250  1.00  0.00     0.039 A 
ATOM     15  C   UNL     1      25.283   4.090  51.373  1.00  0.00     0.049 A 
ATOM     16  C   UNL     1      23.918   4.652  49.447  1.00  0.00     0.060 A 
ATOM     17  C   UNL     1      24.995   3.970  50.018  1.00  0.00     0.039 A 
BRANCH  15  18
ATOM     18  N   UNL     1      26.369   3.373  51.899  1.00  0.00    -0.306 N 
ATOM     19  C   UNL     1      26.691   3.125  53.232  1.00  0.00     0.116 A 
ATOM     20  C   UNL     1      27.389   2.847  51.211  1.00  0.00     0.204 A 
ATOM     21  C   UNL     1      27.871   2.467  53.265  1.00  0.00     0.056 A 
ATOM     22  N   UNL     1      28.275   2.274  51.990  1.00  0.00    -0.242 NA
ATOM     23  C   UNL     1      28.621   1.965  54.475  1.00  0.00     0.068 C 
ENDBRANCH  15  18
BRANCH  16  24
ATOM     24  C   UNL     1      23.596   4.529  47.994  1.00  0.00     0.416 C 
ATOM     25  F   UNL     1      22.291   4.671  47.685  1.00  0.00    -0.166 F 
ATOM     26  F   UNL     1      24.152   5.512  47.296  1.00  0.00    -0.166 F 
ATOM     27  F   UNL     1      23.902   3.311  47.502  1.00  0.00    -0.166 F 
ENDBRANCH  16  24
ENDBRANCH  10  12
ENDBRANCH   1   8
BRANCH   6  28
ATOM     28  N   UNL     1      19.429  10.207  53.056  1.00  0.00    -0.324 N 
ATOM     29  H   UNL     1      19.987  10.764  52.393  1.00  0.00     0.170 HD
BRANCH  28  30
ATOM     30  C   UNL     1      18.040  10.348  53.097  1.00  0.00     0.227 A 
ATOM     31  N   UNL     1      17.313  11.455  53.018  1.00  0.00    -0.221 NA
ATOM     32  N   UNL     1      17.508   9.118  53.320  1.00  0.00    -0.213 NA
ATOM     33  C   UNL     1      15.979  11.312  53.131  1.00  0.00     0.117 A 
ATOM     34  C   UNL     1      16.180   9.031  53.457  1.00  0.00     0.077 A 
ATOM     35  C   UNL     1      15.396  10.126  53.367  1.00  0.00     0.049 A 
BRANCH  34  36
ATOM     36  C   UNL     1      15.645   7.660  53.664  1.00  0.00     0.019 A 
ATOM     37  C   UNL     1      15.900   6.625  52.751  1.00  0.00     0.013 A 
ATOM     38  C   UNL     1      14.847   7.366  54.787  1.00  0.00     0.121 A 
ATOM     39  C   UNL     1      15.352   5.369  52.983  1.00  0.00     0.021 A 
ATOM     40  N   UNL     1      14.310   6.160  55.012  1.00  0.00    -0.264 NA
ATOM     41  C   UNL     1      14.591   5.182  54.136  1.00  0.00     0.111 A 
ENDBRANCH  34  36
ENDBRANCH  28  30
ENDBRANCH   6  28
TORSDOF 7
ENDMDL
MODEL 17
REMARK VINA RESULT:   -10.751      3.374      5.442
REMARK INTER + INTRA:         -13.928
REMARK INTER:                 -12.839
REMARK INTRA:                  -1.088
REMARK CONF_INDEPENDENT:        2.088
REMARK UNBOUND:                -1.088
REMARK SMILES Cc1cn(-c2cc(NC(=O)c3ccc(C)c(Nc4nccc(-c5cccnc5)n4)c3)cc(C(F)(F)F)c2)cn1
REMARK SMILES IDX 11 1 12 2 13 3 14 4 15 5 16 6 30 7 9 8 10 9 8 10 7 12 6 13
REMARK SMILES IDX 31 14 5 15 32 16 37 17 4 18 3 19 38 20 2 21 39 22 1 23 33 24
REMARK SMILES IDX 34 25 35 26 36 27 17 28 18 30 19 31 29 32 20 33 22 34 21 35
REMARK SMILES IDX 23 36 24 37 28 38 25 39 27 40 26 41
REMARK H PARENT 8 11 17 29
ROOT
ATOM      1  C   UNL     1      27.693   1.930  52.501  1.00  0.00     0.042 A 
ATOM      2  C   UNL     1      27.978   0.750  51.797  1.00  0.00     0.014 A 
ATOM      3  C   UNL     1      28.943  -0.151  52.251  1.00  0.00     0.006 A 
ATOM      4  C   UNL     1      29.716   0.124  53.367  1.00  0.00    -0.027 A 
ATOM      5  C   UNL     1      30.770  -0.864  53.846  1.00  0.00     0.046 C 
ATOM      6  C   UNL     1      29.509   1.344  54.011  1.00  0.00     0.045 A 
ATOM      7  C   UNL     1      28.518   2.223  53.555  1.00  0.00     0.040 A 
ENDROOT
BRANCH   1   8
ATOM      8  C   UNL     1      26.785   2.994  52.029  1.00  0.00     0.255 C 
ATOM      9  O   UNL     1      26.813   3.211  50.843  1.00  0.00    -0.269 OA
ATOM     10  N   UNL     1      25.864   3.417  52.908  1.00  0.00    -0.322 N 
ATOM     11  H   UNL     1      25.904   3.019  53.856  1.00  0.00     0.170 HD
BRANCH  10  12
ATOM     12  C   UNL     1      24.861   4.345  52.655  1.00  0.00     0.044 A 
ATOM     13  C   UNL     1      24.085   4.882  53.711  1.00  0.00     0.052 A 
ATOM     14  C   UNL     1      24.512   4.681  51.329  1.00  0.00     0.039 A 
ATOM     15  C   UNL     1      23.080   5.823  53.468  1.00  0.00     0.049 A 
ATOM     16  C   UNL     1      23.504   5.656  51.084  1.00  0.00     0.060 A 
ATOM     17  C   UNL     1      22.783   6.184  52.158  1.00  0.00     0.039 A 
BRANCH  15  18
ATOM     18  N   UNL     1      22.334   6.393  54.511  1.00  0.00    -0.306 N 
ATOM     19  C   UNL     1      22.474   6.215  55.886  1.00  0.00     0.116 A 
ATOM     20  C   UNL     1      21.252   7.171  54.389  1.00  0.00     0.204 A 
ATOM     21  C   UNL     1      21.481   6.893  56.502  1.00  0.00     0.056 A 
ATOM     22  N   UNL     1      20.748   7.511  55.550  1.00  0.00    -0.242 NA
ATOM     23  C   UNL     1      21.223   7.019  57.984  1.00  0.00     0.068 C 
ENDBRANCH  15  18
BRANCH  16  24
ATOM     24  C   UNL     1      23.196   6.038  49.672  1.00  0.00     0.416 C 
ATOM     25  F   UNL     1      21.921   6.412  49.448  1.00  0.00    -0.166 F 
ATOM     26  F   UNL     1      23.869   7.126  49.315  1.00  0.00    -0.166 F 
ATOM     27  F   UNL     1      23.378   5.014  48.813  1.00  0.00    -0.166 F 
ENDBRANCH  16  24
ENDBRANCH  10  12
ENDBRANCH   1   8
BRANCH   6  28
ATOM     28  N   UNL     1      30.159   1.573  55.230  1.00  0.00    -0.324 N 
ATOM     29  H   UNL     1      29.865   1.068  56.078  1.00  0.00     0.170 HD
BRANCH  28  30
ATOM     30  C   UNL     1      31.210   2.490  55.286  1.00  0.00     0.227 A 
ATOM     31  N   UNL     1      32.078   2.820  54.339  1.00  0.00    -0.221 NA
ATOM     32  N   UNL     1      31.268   2.973  56.554  1.00  0.00    -0.213 NA
ATOM     33  C   UNL     1      33.031   3.711  54.674  1.00  0.00     0.117 A 
ATOM     34  C   UNL     1      32.251   3.832  56.848  1.00  0.00     0.077 A 
ATOM     35  C   UNL     1      33.149   4.212  55.914  1.00  0.00     0.049 A 
BRANCH  34  36
ATOM     36  C   UNL     1      32.250   4.357  58.238  1.00  0.00     0.019 A 
ATOM     37  C   UNL     1      31.744   5.631  58.543  1.00  0.00     0.013 A 
ATOM     38  C   UNL     1      32.777   3.588  59.294  1.00  0.00     0.121 A 
ATOM     39  C   UNL     1      31.792   6.081  59.856  1.00  0.00     0.021 A 
ATOM     40  N   UNL     1      32.834   4.019  60.561  1.00  0.00    -0.264 NA
ATOM     41  C   UNL     1      32.319   5.231  60.828  1.00  0.00     0.111 A 
ENDBRANCH  34  36
ENDBRANCH  28  30
ENDBRANCH   6  28
TORSDOF 7
ENDMDL
MODEL 18
REMARK VINA RESULT:   -10.704      1.755      2.613
REMARK INTER + INTRA:         -14.012
REMARK INTER:                 -12.792
REMARK INTRA:                  -1.219
REMARK CONF_INDEPENDENT:        2.088
REMARK UNBOUND:                -1.219
REMARK SMILES Cc1cn(-c2cc(NC(=O)c3ccc(C)c(Nc4nccc(-c5cccnc5)n4)c3)cc(C(F)(F)F)c2)cn1
REMARK SMILES IDX 11 1 12 2 13 3 14 4 15 5 16 6 30 7 9 8 10 9 8 10 7 12 6 13
REMARK SMILES IDX 31 14 5 15 32 16 37 17 4 18 3 19 38 20 2 21 39 22 1 23 33 24
REMARK SMILES IDX 34 25 35 26 36 27 17 28 18 30 19 31 29 32 20 33 22 34 21 35
REMARK SMILES IDX 23 36 24 37 28 38 25 39 27 40 26 41
REMARK H PARENT 8 11 17 29
ROOT
ATOM      1  C   UNL     1      29.257   1.364  52.192  1.00  0.00     0.042 A 
ATOM      2  C   UNL     1      29.689   1.147  53.508  1.00  0.00     0.014 A 
ATOM      3  C   UNL     1      31.000   0.759  53.788  1.00  0.00     0.006 A 
ATOM      4  C   UNL     1      31.903   0.492  52.772  1.00  0.00    -0.027 A 
ATOM      5  C   UNL     1      33.328   0.062  53.091  1.00  0.00     0.046 C 
ATOM      6  C   UNL     1      31.450   0.606  51.458  1.00  0.00     0.045 A 
ATOM      7  C   UNL     1      30.137   1.021  51.199  1.00  0.00     0.040 A 
ENDROOT
BRANCH   1   8
ATOM      8  C   UNL     1      27.863   1.651  51.798  1.00  0.00     0.255 C 
ATOM      9  O   UNL     1      27.183   0.683  51.560  1.00  0.00    -0.269 OA
ATOM     10  N   UNL     1      27.441   2.910  51.990  1.00  0.00    -0.322 N 
ATOM     11  H   UNL     1      28.136   3.589  52.332  1.00  0.00     0.170 HD
BRANCH  10  12
ATOM     12  C   UNL     1      26.153   3.381  51.771  1.00  0.00     0.044 A 
ATOM     13  C   UNL     1      25.384   3.917  52.833  1.00  0.00     0.052 A 
ATOM     14  C   UNL     1      25.537   3.224  50.510  1.00  0.00     0.039 A 
ATOM     15  C   UNL     1      24.091   4.403  52.620  1.00  0.00     0.049 A 
ATOM     16  C   UNL     1      24.228   3.740  50.289  1.00  0.00     0.060 A 
ATOM     17  C   UNL     1      23.516   4.289  51.358  1.00  0.00     0.039 A 
BRANCH  15  18
ATOM     18  N   UNL     1      23.337   4.974  53.656  1.00  0.00    -0.306 N 
ATOM     19  C   UNL     1      23.749   5.849  54.659  1.00  0.00     0.116 A 
ATOM     20  C   UNL     1      22.057   4.717  53.951  1.00  0.00     0.204 A 
ATOM     21  C   UNL     1      22.703   6.066  55.486  1.00  0.00     0.056 A 
ATOM     22  N   UNL     1      21.645   5.375  55.007  1.00  0.00    -0.242 NA
ATOM     23  C   UNL     1      22.652   6.954  56.706  1.00  0.00     0.068 C 
ENDBRANCH  15  18
BRANCH  16  24
ATOM     24  C   UNL     1      23.623   3.615  48.928  1.00  0.00     0.416 C 
ATOM     25  F   UNL     1      24.487   3.279  47.950  1.00  0.00    -0.166 F 
ATOM     26  F   UNL     1      22.753   2.612  48.883  1.00  0.00    -0.166 F 
ATOM     27  F   UNL     1      23.093   4.777  48.494  1.00  0.00    -0.166 F 
ENDBRANCH  16  24
ENDBRANCH  10  12
ENDBRANCH   1   8
BRANCH   6  28
ATOM     28  N   UNL     1      32.383   0.501  50.419  1.00  0.00    -0.324 N 
ATOM     29  H   UNL     1      32.672   1.339  49.894  1.00  0.00     0.170 HD
BRANCH  28  30
ATOM     30  C   UNL     1      32.918  -0.748  50.100  1.00  0.00     0.227 A 
ATOM     31  N   UNL     1      32.313  -1.929  50.063  1.00  0.00    -0.221 NA
ATOM     32  N   UNL     1      34.251  -0.585  49.895  1.00  0.00    -0.213 NA
ATOM     33  C   UNL     1      33.081  -2.994  49.765  1.00  0.00     0.117 A 
ATOM     34  C   UNL     1      34.978  -1.678  49.634  1.00  0.00     0.077 A 
ATOM     35  C   UNL     1      34.405  -2.898  49.567  1.00  0.00     0.049 A 
BRANCH  34  36
ATOM     36  C   UNL     1      36.424  -1.442  49.383  1.00  0.00     0.019 A 
ATOM     37  C   UNL     1      37.174  -0.559  50.176  1.00  0.00     0.013 A 
ATOM     38  C   UNL     1      37.081  -2.094  48.321  1.00  0.00     0.121 A 
ATOM     39  C   UNL     1      38.516  -0.358  49.879  1.00  0.00     0.021 A 
ATOM     40  N   UNL     1      38.372  -1.898  48.024  1.00  0.00    -0.264 NA
ATOM     41  C   UNL     1      39.072  -1.068  48.815  1.00  0.00     0.111 A 
ENDBRANCH  34  36
ENDBRANCH  28  30
ENDBRANCH   6  28
TORSDOF 7
ENDMDL
MODEL 19
REMARK VINA RESULT:   -10.593      8.243     14.892
REMARK INTER + INTRA:         -14.041
REMARK INTER:                 -12.681
REMARK INTRA:                  -1.359
REMARK CONF_INDEPENDENT:        2.088
REMARK UNBOUND:                -1.359
REMARK SMILES Cc1cn(-c2cc(NC(=O)c3ccc(C)c(Nc4nccc(-c5cccnc5)n4)c3)cc(C(F)(F)F)c2)cn1
REMARK SMILES IDX 11 1 12 2 13 3 14 4 15 5 16 6 30 7 9 8 10 9 8 10 7 12 6 13
REMARK SMILES IDX 31 14 5 15 32 16 37 17 4 18 3 19 38 20 2 21 39 22 1 23 33 24
REMARK SMILES IDX 34 25 35 26 36 27 17 28 18 30 19 31 29 32 20 33 22 34 21 35
REMARK SMILES IDX 23 36 24 37 28 38 25 39 27 40 26 41
REMARK H PARENT 8 11 17 29
ROOT
ATOM      1  C   UNL     1      36.052  -1.571  49.493  1.00  0.00     0.042 A 
ATOM      2  C   UNL     1      35.373  -2.779  49.275  1.00  0.00     0.014 A 
ATOM      3  C   UNL     1      33.985  -2.863  49.386  1.00  0.00     0.006 A 
ATOM      4  C   UNL     1      33.230  -1.776  49.797  1.00  0.00    -0.027 A 
ATOM      5  C   UNL     1      31.717  -1.884  49.921  1.00  0.00     0.046 C 
ATOM      6  C   UNL     1      33.910  -0.601  50.116  1.00  0.00     0.045 A 
ATOM      7  C   UNL     1      35.301  -0.530  49.974  1.00  0.00     0.040 A 
ENDROOT
BRANCH   1   8
ATOM      8  C   UNL     1      37.521  -1.422  49.522  1.00  0.00     0.255 C 
ATOM      9  O   UNL     1      37.939  -0.551  50.244  1.00  0.00    -0.269 OA
ATOM     10  N   UNL     1      38.227  -2.412  48.955  1.00  0.00    -0.322 N 
ATOM     11  H   UNL     1      37.693  -3.159  48.488  1.00  0.00     0.170 HD
BRANCH  10  12
ATOM     12  C   UNL     1      39.612  -2.521  48.939  1.00  0.00     0.044 A 
ATOM     13  C   UNL     1      40.355  -2.518  50.145  1.00  0.00     0.052 A 
ATOM     14  C   UNL     1      40.318  -2.514  47.717  1.00  0.00     0.039 A 
ATOM     15  C   UNL     1      41.748  -2.637  50.140  1.00  0.00     0.049 A 
ATOM     16  C   UNL     1      41.735  -2.658  47.713  1.00  0.00     0.060 A 
ATOM     17  C   UNL     1      42.427  -2.682  48.927  1.00  0.00     0.039 A 
BRANCH  15  18
ATOM     18  N   UNL     1      42.489  -2.678  51.330  1.00  0.00    -0.306 N 
ATOM     19  C   UNL     1      42.505  -3.660  52.319  1.00  0.00     0.116 A 
ATOM     20  C   UNL     1      43.283  -1.715  51.813  1.00  0.00     0.204 A 
ATOM     21  C   UNL     1      43.303  -3.236  53.323  1.00  0.00     0.056 A 
ATOM     22  N   UNL     1      43.805  -2.031  52.973  1.00  0.00    -0.242 NA
ATOM     23  C   UNL     1      43.650  -3.958  54.602  1.00  0.00     0.068 C 
ENDBRANCH  15  18
BRANCH  16  24
ATOM     24  C   UNL     1      42.452  -2.709  46.403  1.00  0.00     0.416 C 
ATOM     25  F   UNL     1      42.048  -3.689  45.571  1.00  0.00    -0.166 F 
ATOM     26  F   UNL     1      42.210  -1.620  45.684  1.00  0.00    -0.166 F 
ATOM     27  F   UNL     1      43.772  -2.947  46.550  1.00  0.00    -0.166 F 
ENDBRANCH  16  24
ENDBRANCH  10  12
ENDBRANCH   1   8
BRANCH   6  28
ATOM     28  N   UNL     1      33.160   0.553  50.376  1.00  0.00    -0.324 N 
ATOM     29  H   UNL     1      32.745   1.089  49.600  1.00  0.00     0.170 HD
BRANCH  28  30
ATOM     30  C   UNL     1      32.979   0.972  51.695  1.00  0.00     0.227 A 
ATOM     31  N   UNL     1      33.663   1.878  52.383  1.00  0.00    -0.221 NA
ATOM     32  N   UNL     1      31.987   0.218  52.235  1.00  0.00    -0.213 NA
ATOM     33  C   UNL     1      33.305   2.060  53.668  1.00  0.00     0.117 A 
ATOM     34  C   UNL     1      31.688   0.413  53.524  1.00  0.00     0.077 A 
ATOM     35  C   UNL     1      32.344   1.335  54.261  1.00  0.00     0.049 A 
BRANCH  34  36
ATOM     36  C   UNL     1      30.572  -0.412  54.057  1.00  0.00     0.019 A 
ATOM     37  C   UNL     1      29.500   0.164  54.757  1.00  0.00     0.013 A 
ATOM     38  C   UNL     1      30.571  -1.810  53.884  1.00  0.00     0.121 A 
ATOM     39  C   UNL     1      28.498  -0.659  55.254  1.00  0.00     0.021 A 
ATOM     40  N   UNL     1      29.612  -2.610  54.368  1.00  0.00    -0.264 NA
ATOM     41  C   UNL     1      28.585  -2.029  55.011  1.00  0.00     0.111 A 
ENDBRANCH  34  36
ENDBRANCH  28  30
ENDBRANCH   6  28
TORSDOF 7
ENDMDL
MODEL 20
REMARK VINA RESULT:   -10.478      5.205      8.067
REMARK INTER + INTRA:         -13.759
REMARK INTER:                 -12.566
REMARK INTRA:                  -1.193
REMARK CONF_INDEPENDENT:        2.088
REMARK UNBOUND:                -1.193
REMARK SMILES Cc1cn(-c2cc(NC(=O)c3ccc(C)c(Nc4nccc(-c5cccnc5)n4)c3)cc(C(F)(F)F)c2)cn1
REMARK SMILES IDX 11 1 12 2 13 3 14 4 15 5 16 6 30 7 9 8 10 9 8 10 7 12 6 13
REMARK SMILES IDX 31 14 5 15 32 16 37 17 4 18 3 19 38 20 2 21 39 22 1 23 33 24
REMARK SMILES IDX 34 25 35 26 36 27 17 28 18 30 19 31 29 32 20 33 22 34 21 35
REMARK SMILES IDX 23 36 24 37 28 38 25 39 27 40 26 41
REMARK H PARENT 8 11 17 29
ROOT
ATOM      1  C   UNL     1      24.452   5.969  54.140  1.00  0.00     0.042 A 
ATOM      2  C   UNL     1      23.843   6.655  53.079  1.00  0.00     0.014 A 
ATOM      3  C   UNL     1      23.717   6.075  51.816  1.00  0.00     0.006 A 
ATOM      4  C   UNL     1      24.263   4.832  51.538  1.00  0.00    -0.027 A 
ATOM      5  C   UNL     1      24.125   4.215  50.154  1.00  0.00     0.046 C 
ATOM      6  C   UNL     1      24.960   4.190  52.560  1.00  0.00     0.045 A 
ATOM      7  C   UNL     1      25.053   4.777  53.828  1.00  0.00     0.040 A 
ENDROOT
BRANCH   1   8
ATOM      8  C   UNL     1      24.740   6.551  55.466  1.00  0.00     0.255 C 
ATOM      9  O   UNL     1      25.733   7.234  55.528  1.00  0.00    -0.269 OA
ATOM     10  N   UNL     1      23.755   6.471  56.374  1.00  0.00    -0.322 N 
ATOM     11  H   UNL     1      22.907   5.955  56.099  1.00  0.00     0.170 HD
BRANCH  10  12
ATOM     12  C   UNL     1      23.775   7.020  57.650  1.00  0.00     0.044 A 
ATOM     13  C   UNL     1      24.730   6.598  58.608  1.00  0.00     0.052 A 
ATOM     14  C   UNL     1      22.768   7.921  58.059  1.00  0.00     0.039 A 
ATOM     15  C   UNL     1      24.764   7.152  59.891  1.00  0.00     0.049 A 
ATOM     16  C   UNL     1      22.818   8.501  59.359  1.00  0.00     0.060 A 
ATOM     17  C   UNL     1      23.796   8.079  60.263  1.00  0.00     0.039 A 
BRANCH  15  18
ATOM     18  N   UNL     1      25.732   6.772  60.833  1.00  0.00    -0.306 N 
ATOM     19  C   UNL     1      25.942   5.525  61.418  1.00  0.00     0.116 A 
ATOM     20  C   UNL     1      26.613   7.573  61.443  1.00  0.00     0.204 A 
ATOM     21  C   UNL     1      26.930   5.649  62.332  1.00  0.00     0.056 A 
ATOM     22  N   UNL     1      27.358   6.931  62.309  1.00  0.00    -0.242 NA
ATOM     23  C   UNL     1      27.525   4.573  63.207  1.00  0.00     0.068 C 
ENDBRANCH  15  18
BRANCH  16  24
ATOM     24  C   UNL     1      21.774   9.498  59.745  1.00  0.00     0.416 C 
ATOM     25  F   UNL     1      20.733   9.591  58.894  1.00  0.00    -0.166 F 
ATOM     26  F   UNL     1      21.175   9.148  60.876  1.00  0.00    -0.166 F 
ATOM     27  F   UNL     1      22.258  10.757  59.786  1.00  0.00    -0.166 F 
ENDBRANCH  16  24
ENDBRANCH  10  12
ENDBRANCH   1   8
BRANCH   6  28
ATOM     28  N   UNL     1      25.378   2.869  52.354  1.00  0.00    -0.324 N 
ATOM     29  H   UNL     1      24.697   2.097  52.389  1.00  0.00     0.170 HD
BRANCH  28  30
ATOM     30  C   UNL     1      26.726   2.607  52.101  1.00  0.00     0.227 A 
ATOM     31  N   UNL     1      27.551   3.222  51.263  1.00  0.00    -0.221 NA
ATOM     32  N   UNL     1      27.076   1.513  52.825  1.00  0.00    -0.213 NA
ATOM     33  C   UNL     1      28.803   2.735  51.179  1.00  0.00     0.117 A 
ATOM     34  C   UNL     1      28.322   1.046  52.684  1.00  0.00     0.077 A 
ATOM     35  C   UNL     1      29.204   1.648  51.857  1.00  0.00     0.049 A 
BRANCH  34  36
ATOM     36  C   UNL     1      28.666  -0.131  53.524  1.00  0.00     0.019 A 
ATOM     37  C   UNL     1      27.891  -0.491  54.638  1.00  0.00     0.013 A 
ATOM     38  C   UNL     1      29.799  -0.914  53.229  1.00  0.00     0.121 A 
ATOM     39  C   UNL     1      28.275  -1.586  55.402  1.00  0.00     0.021 A 
ATOM     40  N   UNL     1      30.179  -1.966  53.966  1.00  0.00    -0.264 NA
ATOM     41  C   UNL     1      29.405  -2.303  55.011  1.00  0.00     0.111 A 
ENDBRANCH  34  36
ENDBRANCH  28  30
ENDBRANCH   6  28
TORSDOF 7
ENDMDL
