MODEL 1
REMARK VINA RESULT:   -15.145      0.000      0.000
REMARK INTER + INTRA:         -18.417
REMARK INTER:                 -17.233
REMARK INTRA:                  -1.184
REMARK CONF_INDEPENDENT:        2.088
REMARK UNBOUND:                -1.184
REMARK SMILES Cc1cn(-c2cc(NC(=O)c3ccc(C)c(Nc4nccc(-c5cccnc5)n4)c3)cc(C(F)(F)F)c2)cn1
REMARK SMILES IDX 11 1 12 2 13 3 14 4 15 5 16 6 30 7 9 8 10 9 8 10 7 12 6 13
REMARK SMILES IDX 31 14 5 15 32 16 37 17 4 18 3 19 38 20 2 21 39 22 1 23 33 24
REMARK SMILES IDX 34 25 35 26 36 27 17 28 18 30 19 31 29 32 20 33 22 34 21 35
REMARK SMILES IDX 23 36 24 37 28 38 25 39 27 40 26 41
REMARK H PARENT 8 11 17 29
ROOT
ATOM      1  C   UNL     1      27.985   1.865  53.232  1.00  0.00     0.042 A 
ATOM      2  C   UNL     1      27.703   1.349  54.506  1.00  0.00     0.014 A 
ATOM      3  C   UNL     1      28.420   0.271  55.028  1.00  0.00     0.006 A 
ATOM      4  C   UNL     1      29.381  -0.385  54.277  1.00  0.00    -0.027 A 
ATOM      5  C   UNL     1      30.149  -1.563  54.857  1.00  0.00     0.046 C 
ATOM      6  C   UNL     1      29.594   0.058  52.972  1.00  0.00     0.045 A 
ATOM      7  C   UNL     1      28.882   1.157  52.475  1.00  0.00     0.040 A 
ENDROOT
BRANCH   1   8
ATOM      8  C   UNL     1      27.198   2.913  52.553  1.00  0.00     0.255 C 
ATOM      9  O   UNL     1      27.562   3.194  51.437  1.00  0.00    -0.269 OA
ATOM     10  N   UNL     1      26.038   3.252  53.135  1.00  0.00    -0.322 N 
ATOM     11  H   UNL     1      25.820   2.807  54.038  1.00  0.00     0.170 HD
BRANCH  10  12
ATOM     12  C   UNL     1      25.104   4.149  52.632  1.00  0.00     0.044 A 
ATOM     13  C   UNL     1      24.179   4.793  53.491  1.00  0.00     0.052 A 
ATOM     14  C   UNL     1      24.977   4.348  51.240  1.00  0.00     0.039 A 
ATOM     15  C   UNL     1      23.242   5.704  52.995  1.00  0.00     0.049 A 
ATOM     16  C   UNL     1      24.037   5.293  50.740  1.00  0.00     0.060 A 
ATOM     17  C   UNL     1      23.163   5.929  51.625  1.00  0.00     0.039 A 
BRANCH  15  18
ATOM     18  N   UNL     1      22.349   6.379  53.842  1.00  0.00    -0.306 N 
ATOM     19  C   UNL     1      22.032   6.111  55.172  1.00  0.00     0.116 A 
ATOM     20  C   UNL     1      21.533   7.385  53.507  1.00  0.00     0.204 A 
ATOM     21  C   UNL     1      21.059   6.966  55.555  1.00  0.00     0.056 A 
ATOM     22  N   UNL     1      20.784   7.777  54.509  1.00  0.00    -0.242 NA
ATOM     23  C   UNL     1      20.400   7.079  56.908  1.00  0.00     0.068 C 
ENDBRANCH  15  18
BRANCH  16  24
ATOM     24  C   UNL     1      23.965   5.528  49.266  1.00  0.00     0.416 C 
ATOM     25  F   UNL     1      24.670   6.588  48.822  1.00  0.00    -0.166 F 
ATOM     26  F   UNL     1      24.523   4.527  48.595  1.00  0.00    -0.166 F 
ATOM     27  F   UNL     1      22.709   5.791  48.849  1.00  0.00    -0.166 F 
ENDBRANCH  16  24
ENDBRANCH  10  12
ENDBRANCH   1   8
BRANCH   6  28
ATOM     28  N   UNL     1      30.668  -0.480  52.252  1.00  0.00    -0.324 N 
ATOM     29  H   UNL     1      30.525  -1.293  51.636  1.00  0.00     0.170 HD
BRANCH  28  30
ATOM     30  C   UNL     1      31.935   0.094  52.377  1.00  0.00     0.227 A 
ATOM     31  N   UNL     1      32.337   1.051  53.203  1.00  0.00    -0.221 NA
ATOM     32  N   UNL     1      32.729  -0.450  51.419  1.00  0.00    -0.213 NA
ATOM     33  C   UNL     1      33.616   1.456  53.084  1.00  0.00     0.117 A 
ATOM     34  C   UNL     1      33.983   0.007  51.319  1.00  0.00     0.077 A 
ATOM     35  C   UNL     1      34.445   0.968  52.148  1.00  0.00     0.049 A 
BRANCH  34  36
ATOM     36  C   UNL     1      34.822  -0.644  50.279  1.00  0.00     0.019 A 
ATOM     37  C   UNL     1      36.082  -0.134  49.926  1.00  0.00     0.013 A 
ATOM     38  C   UNL     1      34.363  -1.791  49.603  1.00  0.00     0.121 A 
ATOM     39  C   UNL     1      36.812  -0.769  48.929  1.00  0.00     0.021 A 
ATOM     40  N   UNL     1      35.058  -2.403  48.636  1.00  0.00    -0.264 NA
ATOM     41  C   UNL     1      36.270  -1.910  48.336  1.00  0.00     0.111 A 
ENDBRANCH  34  36
ENDBRANCH  28  30
ENDBRANCH   6  28
TORSDOF 7
ENDMDL
MODEL 2
REMARK VINA RESULT:   -12.464      2.432      3.983
REMARK INTER + INTRA:         -15.748
REMARK INTER:                 -14.552
REMARK INTRA:                  -1.196
REMARK CONF_INDEPENDENT:        2.088
REMARK UNBOUND:                -1.196
REMARK SMILES Cc1cn(-c2cc(NC(=O)c3ccc(C)c(Nc4nccc(-c5cccnc5)n4)c3)cc(C(F)(F)F)c2)cn1
REMARK SMILES IDX 11 1 12 2 13 3 14 4 15 5 16 6 30 7 9 8 10 9 8 10 7 12 6 13
REMARK SMILES IDX 31 14 5 15 32 16 37 17 4 18 3 19 38 20 2 21 39 22 1 23 33 24
REMARK SMILES IDX 34 25 35 26 36 27 17 28 18 30 19 31 29 32 20 33 22 34 21 35
REMARK SMILES IDX 23 36 24 37 28 38 25 39 27 40 26 41
REMARK H PARENT 8 11 17 29
ROOT
ATOM      1  C   UNL     1      28.584   1.552  53.560  1.00  0.00     0.042 A 
ATOM      2  C   UNL     1      28.145   0.657  54.547  1.00  0.00     0.014 A 
ATOM      3  C   UNL     1      28.935  -0.419  54.956  1.00  0.00     0.006 A 
ATOM      4  C   UNL     1      30.147  -0.694  54.343  1.00  0.00    -0.027 A 
ATOM      5  C   UNL     1      30.994  -1.875  54.793  1.00  0.00     0.046 C 
ATOM      6  C   UNL     1      30.540   0.131  53.290  1.00  0.00     0.045 A 
ATOM      7  C   UNL     1      29.745   1.221  52.912  1.00  0.00     0.040 A 
ENDROOT
BRANCH   1   8
ATOM      8  C   UNL     1      27.766   2.636  52.981  1.00  0.00     0.255 C 
ATOM      9  O   UNL     1      28.231   3.171  52.004  1.00  0.00    -0.269 OA
ATOM     10  N   UNL     1      26.508   2.736  53.436  1.00  0.00    -0.322 N 
ATOM     11  H   UNL     1      26.234   2.098  54.197  1.00  0.00     0.170 HD
BRANCH  10  12
ATOM     12  C   UNL     1      25.542   3.622  52.977  1.00  0.00     0.044 A 
ATOM     13  C   UNL     1      25.420   3.914  51.596  1.00  0.00     0.052 A 
ATOM     14  C   UNL     1      24.739   4.344  53.887  1.00  0.00     0.039 A 
ATOM     15  C   UNL     1      24.445   4.796  51.123  1.00  0.00     0.049 A 
ATOM     16  C   UNL     1      23.731   5.226  53.402  1.00  0.00     0.060 A 
ATOM     17  C   UNL     1      23.626   5.462  52.030  1.00  0.00     0.039 A 
BRANCH  15  18
ATOM     18  N   UNL     1      24.289   5.059  49.754  1.00  0.00    -0.306 N 
ATOM     19  C   UNL     1      23.872   6.234  49.130  1.00  0.00     0.116 A 
ATOM     20  C   UNL     1      24.425   4.185  48.750  1.00  0.00     0.204 A 
ATOM     21  C   UNL     1      23.789   5.999  47.802  1.00  0.00     0.056 A 
ATOM     22  N   UNL     1      24.170   4.721  47.581  1.00  0.00    -0.242 NA
ATOM     23  C   UNL     1      23.399   6.966  46.710  1.00  0.00     0.068 C 
ENDBRANCH  15  18
BRANCH  16  24
ATOM     24  C   UNL     1      22.856   5.932  54.386  1.00  0.00     0.416 C 
ATOM     25  F   UNL     1      22.101   5.125  55.158  1.00  0.00    -0.166 F 
ATOM     26  F   UNL     1      23.580   6.578  55.292  1.00  0.00    -0.166 F 
ATOM     27  F   UNL     1      21.949   6.730  53.786  1.00  0.00    -0.166 F 
ENDBRANCH  16  24
ENDBRANCH  10  12
ENDBRANCH   1   8
BRANCH   6  28
ATOM     28  N   UNL     1      31.830  -0.027  52.766  1.00  0.00    -0.324 N 
ATOM     29  H   UNL     1      32.650   0.290  53.301  1.00  0.00     0.170 HD
BRANCH  28  30
ATOM     30  C   UNL     1      31.993  -0.617  51.511  1.00  0.00     0.227 A 
ATOM     31  N   UNL     1      31.068  -1.098  50.690  1.00  0.00    -0.221 NA
ATOM     32  N   UNL     1      33.326  -0.702  51.266  1.00  0.00    -0.213 NA
ATOM     33  C   UNL     1      31.505  -1.660  49.547  1.00  0.00     0.117 A 
ATOM     34  C   UNL     1      33.713  -1.297  50.132  1.00  0.00     0.077 A 
ATOM     35  C   UNL     1      32.810  -1.787  49.257  1.00  0.00     0.049 A 
BRANCH  34  36
ATOM     36  C   UNL     1      35.180  -1.333  49.894  1.00  0.00     0.019 A 
ATOM     37  C   UNL     1      36.056  -0.463  50.564  1.00  0.00     0.013 A 
ATOM     38  C   UNL     1      35.733  -2.241  48.970  1.00  0.00     0.121 A 
ATOM     39  C   UNL     1      37.415  -0.525  50.283  1.00  0.00     0.021 A 
ATOM     40  N   UNL     1      37.041  -2.300  48.689  1.00  0.00    -0.264 NA
ATOM     41  C   UNL     1      37.858  -1.474  49.363  1.00  0.00     0.111 A 
ENDBRANCH  34  36
ENDBRANCH  28  30
ENDBRANCH   6  28
TORSDOF 7
ENDMDL
MODEL 3
REMARK VINA RESULT:   -11.839      3.160      4.290
REMARK INTER + INTRA:         -14.951
REMARK INTER:                 -13.927
REMARK INTRA:                  -1.024
REMARK CONF_INDEPENDENT:        2.088
REMARK UNBOUND:                -1.024
REMARK SMILES Cc1cn(-c2cc(NC(=O)c3ccc(C)c(Nc4nccc(-c5cccnc5)n4)c3)cc(C(F)(F)F)c2)cn1
REMARK SMILES IDX 11 1 12 2 13 3 14 4 15 5 16 6 30 7 9 8 10 9 8 10 7 12 6 13
REMARK SMILES IDX 31 14 5 15 32 16 37 17 4 18 3 19 38 20 2 21 39 22 1 23 33 24
REMARK SMILES IDX 34 25 35 26 36 27 17 28 18 30 19 31 29 32 20 33 22 34 21 35
REMARK SMILES IDX 23 36 24 37 28 38 25 39 27 40 26 41
REMARK H PARENT 8 11 17 29
ROOT
ATOM      1  C   UNL     1      28.171   2.634  52.638  1.00  0.00     0.042 A 
ATOM      2  C   UNL     1      28.065   3.219  53.908  1.00  0.00     0.014 A 
ATOM      3  C   UNL     1      29.113   3.155  54.828  1.00  0.00     0.006 A 
ATOM      4  C   UNL     1      30.267   2.439  54.554  1.00  0.00    -0.027 A 
ATOM      5  C   UNL     1      31.398   2.371  55.570  1.00  0.00     0.046 C 
ATOM      6  C   UNL     1      30.336   1.769  53.334  1.00  0.00     0.045 A 
ATOM      7  C   UNL     1      29.285   1.866  52.414  1.00  0.00     0.040 A 
ENDROOT
BRANCH   1   8
ATOM      8  C   UNL     1      27.073   2.544  51.656  1.00  0.00     0.255 C 
ATOM      9  O   UNL     1      26.766   1.426  51.322  1.00  0.00    -0.269 OA
ATOM     10  N   UNL     1      26.381   3.673  51.438  1.00  0.00    -0.322 N 
ATOM     11  H   UNL     1      26.709   4.522  51.918  1.00  0.00     0.170 HD
BRANCH  10  12
ATOM     12  C   UNL     1      25.262   3.799  50.623  1.00  0.00     0.044 A 
ATOM     13  C   UNL     1      24.523   2.659  50.221  1.00  0.00     0.052 A 
ATOM     14  C   UNL     1      24.908   5.053  50.080  1.00  0.00     0.039 A 
ATOM     15  C   UNL     1      23.391   2.778  49.410  1.00  0.00     0.049 A 
ATOM     16  C   UNL     1      23.741   5.175  49.273  1.00  0.00     0.060 A 
ATOM     17  C   UNL     1      23.023   4.028  48.925  1.00  0.00     0.039 A 
BRANCH  15  18
ATOM     18  N   UNL     1      22.628   1.660  49.041  1.00  0.00    -0.306 N 
ATOM     19  C   UNL     1      22.285   0.543  49.801  1.00  0.00     0.116 A 
ATOM     20  C   UNL     1      22.138   1.390  47.825  1.00  0.00     0.204 A 
ATOM     21  C   UNL     1      21.614  -0.319  49.007  1.00  0.00     0.056 A 
ATOM     22  N   UNL     1      21.504   0.244  47.783  1.00  0.00    -0.242 NA
ATOM     23  C   UNL     1      21.022  -1.657  49.379  1.00  0.00     0.068 C 
ENDBRANCH  15  18
BRANCH  16  24
ATOM     24  C   UNL     1      23.356   6.525  48.760  1.00  0.00     0.416 C 
ATOM     25  F   UNL     1      22.030   6.728  48.631  1.00  0.00    -0.166 F 
ATOM     26  F   UNL     1      23.697   7.477  49.621  1.00  0.00    -0.166 F 
ATOM     27  F   UNL     1      23.831   6.757  47.519  1.00  0.00    -0.166 F 
ENDBRANCH  16  24
ENDBRANCH  10  12
ENDBRANCH   1   8
BRANCH   6  28
ATOM     28  N   UNL     1      31.552   1.177  52.967  1.00  0.00    -0.324 N 
ATOM     29  H   UNL     1      32.414   1.399  53.484  1.00  0.00     0.170 HD
BRANCH  28  30
ATOM     30  C   UNL     1      31.584   0.283  51.894  1.00  0.00     0.227 A 
ATOM     31  N   UNL     1      30.592  -0.424  51.370  1.00  0.00    -0.221 NA
ATOM     32  N   UNL     1      32.875   0.176  51.486  1.00  0.00    -0.213 NA
ATOM     33  C   UNL     1      30.908  -1.253  50.357  1.00  0.00     0.117 A 
ATOM     34  C   UNL     1      33.146  -0.684  50.498  1.00  0.00     0.077 A 
ATOM     35  C   UNL     1      32.167  -1.413  49.919  1.00  0.00     0.049 A 
BRANCH  34  36
ATOM     36  C   UNL     1      34.566  -0.738  50.064  1.00  0.00     0.019 A 
ATOM     37  C   UNL     1      35.128  -1.909  49.531  1.00  0.00     0.013 A 
ATOM     38  C   UNL     1      35.397   0.392  50.194  1.00  0.00     0.121 A 
ATOM     39  C   UNL     1      36.469  -1.909  49.166  1.00  0.00     0.021 A 
ATOM     40  N   UNL     1      36.692   0.396  49.851  1.00  0.00    -0.264 NA
ATOM     41  C   UNL     1      37.197  -0.729  49.320  1.00  0.00     0.111 A 
ENDBRANCH  34  36
ENDBRANCH  28  30
ENDBRANCH   6  28
TORSDOF 7
ENDMDL
MODEL 4
REMARK VINA RESULT:   -11.542      4.132     11.211
REMARK INTER + INTRA:         -14.795
REMARK INTER:                 -13.630
REMARK INTRA:                  -1.165
REMARK CONF_INDEPENDENT:        2.088
REMARK UNBOUND:                -1.165
REMARK SMILES Cc1cn(-c2cc(NC(=O)c3ccc(C)c(Nc4nccc(-c5cccnc5)n4)c3)cc(C(F)(F)F)c2)cn1
REMARK SMILES IDX 11 1 12 2 13 3 14 4 15 5 16 6 30 7 9 8 10 9 8 10 7 12 6 13
REMARK SMILES IDX 31 14 5 15 32 16 37 17 4 18 3 19 38 20 2 21 39 22 1 23 33 24
REMARK SMILES IDX 34 25 35 26 36 27 17 28 18 30 19 31 29 32 20 33 22 34 21 35
REMARK SMILES IDX 23 36 24 37 28 38 25 39 27 40 26 41
REMARK H PARENT 8 11 17 29
ROOT
ATOM      1  C   UNL     1      25.879   3.859  52.044  1.00  0.00     0.042 A 
ATOM      2  C   UNL     1      25.272   4.371  50.887  1.00  0.00     0.014 A 
ATOM      3  C   UNL     1      24.151   5.199  50.960  1.00  0.00     0.006 A 
ATOM      4  C   UNL     1      23.543   5.479  52.173  1.00  0.00    -0.027 A 
ATOM      5  C   UNL     1      22.315   6.378  52.236  1.00  0.00     0.046 C 
ATOM      6  C   UNL     1      24.079   4.889  53.316  1.00  0.00     0.045 A 
ATOM      7  C   UNL     1      25.220   4.082  53.225  1.00  0.00     0.040 A 
ENDROOT
BRANCH   1   8
ATOM      8  C   UNL     1      26.984   2.880  52.054  1.00  0.00     0.255 C 
ATOM      9  O   UNL     1      27.669   2.861  51.061  1.00  0.00    -0.269 OA
ATOM     10  N   UNL     1      27.258   2.309  53.237  1.00  0.00    -0.322 N 
ATOM     11  H   UNL     1      26.638   2.546  54.024  1.00  0.00     0.170 HD
BRANCH  10  12
ATOM     12  C   UNL     1      28.300   1.428  53.495  1.00  0.00     0.044 A 
ATOM     13  C   UNL     1      29.596   1.662  52.974  1.00  0.00     0.052 A 
ATOM     14  C   UNL     1      28.062   0.217  54.182  1.00  0.00     0.039 A 
ATOM     15  C   UNL     1      30.654   0.787  53.238  1.00  0.00     0.049 A 
ATOM     16  C   UNL     1      29.145  -0.662  54.468  1.00  0.00     0.060 A 
ATOM     17  C   UNL     1      30.415  -0.378  53.961  1.00  0.00     0.039 A 
BRANCH  15  18
ATOM     18  N   UNL     1      31.951   1.032  52.762  1.00  0.00    -0.306 N 
ATOM     19  C   UNL     1      32.565   0.551  51.607  1.00  0.00     0.116 A 
ATOM     20  C   UNL     1      32.915   1.721  53.383  1.00  0.00     0.204 A 
ATOM     21  C   UNL     1      33.846   0.979  51.601  1.00  0.00     0.056 A 
ATOM     22  N   UNL     1      34.036   1.737  52.704  1.00  0.00    -0.242 NA
ATOM     23  C   UNL     1      34.903   0.733  50.551  1.00  0.00     0.068 C 
ENDBRANCH  15  18
BRANCH  16  24
ATOM     24  C   UNL     1      28.876  -1.908  55.249  1.00  0.00     0.416 C 
ATOM     25  F   UNL     1      28.041  -2.783  54.655  1.00  0.00    -0.166 F 
ATOM     26  F   UNL     1      29.981  -2.632  55.387  1.00  0.00    -0.166 F 
ATOM     27  F   UNL     1      28.275  -1.653  56.429  1.00  0.00    -0.166 F 
ENDBRANCH  16  24
ENDBRANCH  10  12
ENDBRANCH   1   8
BRANCH   6  28
ATOM     28  N   UNL     1      23.584   5.285  54.565  1.00  0.00    -0.324 N 
ATOM     29  H   UNL     1      22.913   4.690  55.071  1.00  0.00     0.170 HD
BRANCH  28  30
ATOM     30  C   UNL     1      24.009   6.494  55.120  1.00  0.00     0.227 A 
ATOM     31  N   UNL     1      23.999   7.707  54.582  1.00  0.00    -0.221 NA
ATOM     32  N   UNL     1      24.540   6.223  56.341  1.00  0.00    -0.213 NA
ATOM     33  C   UNL     1      24.513   8.704  55.326  1.00  0.00     0.117 A 
ATOM     34  C   UNL     1      25.068   7.241  57.029  1.00  0.00     0.077 A 
ATOM     35  C   UNL     1      25.065   8.497  56.532  1.00  0.00     0.049 A 
BRANCH  34  36
ATOM     36  C   UNL     1      25.604   6.899  58.373  1.00  0.00     0.019 A 
ATOM     37  C   UNL     1      24.780   6.878  59.510  1.00  0.00     0.013 A 
ATOM     38  C   UNL     1      26.969   6.598  58.543  1.00  0.00     0.121 A 
ATOM     39  C   UNL     1      25.340   6.576  60.744  1.00  0.00     0.021 A 
ATOM     40  N   UNL     1      27.517   6.313  59.732  1.00  0.00    -0.264 NA
ATOM     41  C   UNL     1      26.701   6.276  60.798  1.00  0.00     0.111 A 
ENDBRANCH  34  36
ENDBRANCH  28  30
ENDBRANCH   6  28
TORSDOF 7
ENDMDL
MODEL 5
REMARK VINA RESULT:   -11.211      7.067      9.826
REMARK INTER + INTRA:         -14.623
REMARK INTER:                 -13.299
REMARK INTRA:                  -1.324
REMARK CONF_INDEPENDENT:        2.088
REMARK UNBOUND:                -1.324
REMARK SMILES Cc1cn(-c2cc(NC(=O)c3ccc(C)c(Nc4nccc(-c5cccnc5)n4)c3)cc(C(F)(F)F)c2)cn1
REMARK SMILES IDX 11 1 12 2 13 3 14 4 15 5 16 6 30 7 9 8 10 9 8 10 7 12 6 13
REMARK SMILES IDX 31 14 5 15 32 16 37 17 4 18 3 19 38 20 2 21 39 22 1 23 33 24
REMARK SMILES IDX 34 25 35 26 36 27 17 28 18 30 19 31 29 32 20 33 22 34 21 35
REMARK SMILES IDX 23 36 24 37 28 38 25 39 27 40 26 41
REMARK H PARENT 8 11 17 29
ROOT
ATOM      1  C   UNL     1      32.046   3.098  55.065  1.00  0.00     0.042 A 
ATOM      2  C   UNL     1      33.308   3.169  54.456  1.00  0.00     0.014 A 
ATOM      3  C   UNL     1      33.663   2.309  53.416  1.00  0.00     0.006 A 
ATOM      4  C   UNL     1      32.812   1.297  52.999  1.00  0.00    -0.027 A 
ATOM      5  C   UNL     1      33.215   0.361  51.868  1.00  0.00     0.046 C 
ATOM      6  C   UNL     1      31.599   1.156  53.670  1.00  0.00     0.045 A 
ATOM      7  C   UNL     1      31.251   2.045  54.695  1.00  0.00     0.040 A 
ENDROOT
BRANCH   1   8
ATOM      8  C   UNL     1      31.636   3.878  56.249  1.00  0.00     0.255 C 
ATOM      9  O   UNL     1      30.525   4.347  56.202  1.00  0.00    -0.269 OA
ATOM     10  N   UNL     1      32.424   3.772  57.330  1.00  0.00    -0.322 N 
ATOM     11  H   UNL     1      33.282   3.211  57.229  1.00  0.00     0.170 HD
BRANCH  10  12
ATOM     12  C   UNL     1      32.187   4.347  58.572  1.00  0.00     0.044 A 
ATOM     13  C   UNL     1      31.845   5.718  58.685  1.00  0.00     0.052 A 
ATOM     14  C   UNL     1      32.400   3.610  59.757  1.00  0.00     0.039 A 
ATOM     15  C   UNL     1      31.596   6.303  59.929  1.00  0.00     0.049 A 
ATOM     16  C   UNL     1      32.124   4.202  61.022  1.00  0.00     0.060 A 
ATOM     17  C   UNL     1      31.760   5.549  61.087  1.00  0.00     0.039 A 
BRANCH  15  18
ATOM     18  N   UNL     1      31.216   7.649  60.049  1.00  0.00    -0.306 N 
ATOM     19  C   UNL     1      29.956   8.221  59.884  1.00  0.00     0.116 A 
ATOM     20  C   UNL     1      32.024   8.694  60.261  1.00  0.00     0.204 A 
ATOM     21  C   UNL     1      30.080   9.560  60.010  1.00  0.00     0.056 A 
ATOM     22  N   UNL     1      31.376   9.833  60.279  1.00  0.00    -0.242 NA
ATOM     23  C   UNL     1      28.994  10.605  59.932  1.00  0.00     0.068 C 
ENDBRANCH  15  18
BRANCH  16  24
ATOM     24  C   UNL     1      32.301   3.380  62.258  1.00  0.00     0.416 C 
ATOM     25  F   UNL     1      31.878   2.104  62.158  1.00  0.00    -0.166 F 
ATOM     26  F   UNL     1      33.587   3.222  62.546  1.00  0.00    -0.166 F 
ATOM     27  F   UNL     1      31.595   3.864  63.301  1.00  0.00    -0.166 F 
ENDBRANCH  16  24
ENDBRANCH  10  12
ENDBRANCH   1   8
BRANCH   6  28
ATOM     28  N   UNL     1      30.658   0.250  53.162  1.00  0.00    -0.324 N 
ATOM     29  H   UNL     1      30.920  -0.404  52.411  1.00  0.00     0.170 HD
BRANCH  28  30
ATOM     30  C   UNL     1      29.363   0.241  53.684  1.00  0.00     0.227 A 
ATOM     31  N   UNL     1      28.837  -0.572  54.591  1.00  0.00    -0.221 NA
ATOM     32  N   UNL     1      28.650   1.195  53.032  1.00  0.00    -0.213 NA
ATOM     33  C   UNL     1      27.536  -0.388  54.886  1.00  0.00     0.117 A 
ATOM     34  C   UNL     1      27.353   1.318  53.336  1.00  0.00     0.077 A 
ATOM     35  C   UNL     1      26.775   0.527  54.266  1.00  0.00     0.049 A 
BRANCH  34  36
ATOM     36  C   UNL     1      26.625   2.399  52.621  1.00  0.00     0.019 A 
ATOM     37  C   UNL     1      25.653   3.182  53.264  1.00  0.00     0.013 A 
ATOM     38  C   UNL     1      26.886   2.659  51.261  1.00  0.00     0.121 A 
ATOM     39  C   UNL     1      24.987   4.162  52.539  1.00  0.00     0.021 A 
ATOM     40  N   UNL     1      26.241   3.597  50.555  1.00  0.00    -0.264 NA
ATOM     41  C   UNL     1      25.334   4.347  51.202  1.00  0.00     0.111 A 
ENDBRANCH  34  36
ENDBRANCH  28  30
ENDBRANCH   6  28
TORSDOF 7
ENDMDL
MODEL 6
REMARK VINA RESULT:   -11.047      1.673      2.561
REMARK INTER + INTRA:         -14.269
REMARK INTER:                 -13.135
REMARK INTRA:                  -1.133
REMARK CONF_INDEPENDENT:        2.088
REMARK UNBOUND:                -1.133
REMARK SMILES Cc1cn(-c2cc(NC(=O)c3ccc(C)c(Nc4nccc(-c5cccnc5)n4)c3)cc(C(F)(F)F)c2)cn1
REMARK SMILES IDX 11 1 12 2 13 3 14 4 15 5 16 6 30 7 9 8 10 9 8 10 7 12 6 13
REMARK SMILES IDX 31 14 5 15 32 16 37 17 4 18 3 19 38 20 2 21 39 22 1 23 33 24
REMARK SMILES IDX 34 25 35 26 36 27 17 28 18 30 19 31 29 32 20 33 22 34 21 35
REMARK SMILES IDX 23 36 24 37 28 38 25 39 27 40 26 41
REMARK H PARENT 8 11 17 29
ROOT
ATOM      1  C   UNL     1      27.015   2.416  52.599  1.00  0.00     0.042 A 
ATOM      2  C   UNL     1      27.143   1.166  51.975  1.00  0.00     0.014 A 
ATOM      3  C   UNL     1      28.069   0.222  52.423  1.00  0.00     0.006 A 
ATOM      4  C   UNL     1      28.955   0.514  53.447  1.00  0.00    -0.027 A 
ATOM      5  C   UNL     1      29.965  -0.522  53.920  1.00  0.00     0.046 C 
ATOM      6  C   UNL     1      28.902   1.792  54.002  1.00  0.00     0.045 A 
ATOM      7  C   UNL     1      27.949   2.716  53.556  1.00  0.00     0.040 A 
ENDROOT
BRANCH   1   8
ATOM      8  C   UNL     1      26.156   3.515  52.115  1.00  0.00     0.255 C 
ATOM      9  O   UNL     1      26.179   3.705  50.924  1.00  0.00    -0.269 OA
ATOM     10  N   UNL     1      25.271   4.006  52.996  1.00  0.00    -0.322 N 
ATOM     11  H   UNL     1      25.305   3.627  53.953  1.00  0.00     0.170 HD
BRANCH  10  12
ATOM     12  C   UNL     1      24.315   4.979  52.735  1.00  0.00     0.044 A 
ATOM     13  C   UNL     1      23.424   5.412  53.748  1.00  0.00     0.052 A 
ATOM     14  C   UNL     1      24.129   5.470  51.425  1.00  0.00     0.039 A 
ATOM     15  C   UNL     1      22.464   6.398  53.498  1.00  0.00     0.049 A 
ATOM     16  C   UNL     1      23.166   6.490  51.177  1.00  0.00     0.060 A 
ATOM     17  C   UNL     1      22.328   6.910  52.212  1.00  0.00     0.039 A 
BRANCH  15  18
ATOM     18  N   UNL     1      21.606   6.864  54.505  1.00  0.00    -0.306 N 
ATOM     19  C   UNL     1      20.694   7.917  54.460  1.00  0.00     0.116 A 
ATOM     20  C   UNL     1      21.552   6.439  55.773  1.00  0.00     0.204 A 
ATOM     21  C   UNL     1      20.150   8.057  55.689  1.00  0.00     0.056 A 
ATOM     22  N   UNL     1      20.676   7.102  56.487  1.00  0.00    -0.242 NA
ATOM     23  C   UNL     1      19.100   9.046  56.132  1.00  0.00     0.068 C 
ENDBRANCH  15  18
BRANCH  16  24
ATOM     24  C   UNL     1      23.032   7.035  49.792  1.00  0.00     0.416 C 
ATOM     25  F   UNL     1      22.772   8.355  49.722  1.00  0.00    -0.166 F 
ATOM     26  F   UNL     1      24.180   6.945  49.131  1.00  0.00    -0.166 F 
ATOM     27  F   UNL     1      22.005   6.477  49.119  1.00  0.00    -0.166 F 
ENDBRANCH  16  24
ENDBRANCH  10  12
ENDBRANCH   1   8
BRANCH   6  28
ATOM     28  N   UNL     1      29.673   2.056  55.142  1.00  0.00    -0.324 N 
ATOM     29  H   UNL     1      29.260   1.963  56.080  1.00  0.00     0.170 HD
BRANCH  28  30
ATOM     30  C   UNL     1      31.005   2.447  54.995  1.00  0.00     0.227 A 
ATOM     31  N   UNL     1      31.672   3.393  55.643  1.00  0.00    -0.221 NA
ATOM     32  N   UNL     1      31.536   1.724  53.975  1.00  0.00    -0.213 NA
ATOM     33  C   UNL     1      32.950   3.596  55.272  1.00  0.00     0.117 A 
ATOM     34  C   UNL     1      32.800   1.984  53.620  1.00  0.00     0.077 A 
ATOM     35  C   UNL     1      33.525   2.926  54.262  1.00  0.00     0.049 A 
BRANCH  34  36
ATOM     36  C   UNL     1      33.345   1.143  52.523  1.00  0.00     0.019 A 
ATOM     37  C   UNL     1      32.587   0.118  51.936  1.00  0.00     0.013 A 
ATOM     38  C   UNL     1      34.656   1.347  52.049  1.00  0.00     0.121 A 
ATOM     39  C   UNL     1      33.157  -0.653  50.931  1.00  0.00     0.021 A 
ATOM     40  N   UNL     1      35.214   0.602  51.086  1.00  0.00    -0.264 NA
ATOM     41  C   UNL     1      34.457  -0.355  50.525  1.00  0.00     0.111 A 
ENDBRANCH  34  36
ENDBRANCH  28  30
ENDBRANCH   6  28
TORSDOF 7
ENDMDL
MODEL 7
REMARK VINA RESULT:   -10.934      4.762      8.487
REMARK INTER + INTRA:         -14.013
REMARK INTER:                 -13.022
REMARK INTRA:                  -0.991
REMARK CONF_INDEPENDENT:        2.088
REMARK UNBOUND:                -0.991
REMARK SMILES Cc1cn(-c2cc(NC(=O)c3ccc(C)c(Nc4nccc(-c5cccnc5)n4)c3)cc(C(F)(F)F)c2)cn1
REMARK SMILES IDX 11 1 12 2 13 3 14 4 15 5 16 6 30 7 9 8 10 9 8 10 7 12 6 13
REMARK SMILES IDX 31 14 5 15 32 16 37 17 4 18 3 19 38 20 2 21 39 22 1 23 33 24
REMARK SMILES IDX 34 25 35 26 36 27 17 28 18 30 19 31 29 32 20 33 22 34 21 35
REMARK SMILES IDX 23 36 24 37 28 38 25 39 27 40 26 41
REMARK H PARENT 8 11 17 29
ROOT
ATOM      1  C   UNL     1      34.484  -0.751  50.677  1.00  0.00     0.042 A 
ATOM      2  C   UNL     1      34.637  -2.049  50.165  1.00  0.00     0.014 A 
ATOM      3  C   UNL     1      35.678  -2.368  49.292  1.00  0.00     0.006 A 
ATOM      4  C   UNL     1      36.553  -1.396  48.832  1.00  0.00    -0.027 A 
ATOM      5  C   UNL     1      37.679  -1.757  47.874  1.00  0.00     0.046 C 
ATOM      6  C   UNL     1      36.343  -0.085  49.256  1.00  0.00     0.045 A 
ATOM      7  C   UNL     1      35.307   0.210  50.151  1.00  0.00     0.040 A 
ENDROOT
BRANCH   1   8
ATOM      8  C   UNL     1      33.345  -0.298  51.499  1.00  0.00     0.255 C 
ATOM      9  O   UNL     1      33.393   0.852  51.862  1.00  0.00    -0.269 OA
ATOM     10  N   UNL     1      32.282  -1.116  51.540  1.00  0.00    -0.322 N 
ATOM     11  H   UNL     1      32.368  -2.019  51.053  1.00  0.00     0.170 HD
BRANCH  10  12
ATOM     12  C   UNL     1      31.076  -0.855  52.179  1.00  0.00     0.044 A 
ATOM     13  C   UNL     1      30.299   0.277  51.831  1.00  0.00     0.052 A 
ATOM     14  C   UNL     1      30.657  -1.645  53.271  1.00  0.00     0.039 A 
ATOM     15  C   UNL     1      29.080   0.542  52.461  1.00  0.00     0.049 A 
ATOM     16  C   UNL     1      29.404  -1.387  53.897  1.00  0.00     0.060 A 
ATOM     17  C   UNL     1      28.654  -0.276  53.502  1.00  0.00     0.039 A 
BRANCH  15  18
ATOM     18  N   UNL     1      28.282   1.637  52.095  1.00  0.00    -0.306 N 
ATOM     19  C   UNL     1      27.268   2.263  52.818  1.00  0.00     0.116 A 
ATOM     20  C   UNL     1      28.272   2.261  50.911  1.00  0.00     0.204 A 
ATOM     21  C   UNL     1      26.719   3.217  52.036  1.00  0.00     0.056 A 
ATOM     22  N   UNL     1      27.383   3.222  50.858  1.00  0.00    -0.242 NA
ATOM     23  C   UNL     1      25.602   4.172  52.381  1.00  0.00     0.068 C 
ENDBRANCH  15  18
BRANCH  16  24
ATOM     24  C   UNL     1      28.957  -2.276  55.012  1.00  0.00     0.416 C 
ATOM     25  F   UNL     1      28.575  -1.634  56.134  1.00  0.00    -0.166 F 
ATOM     26  F   UNL     1      27.853  -2.936  54.682  1.00  0.00    -0.166 F 
ATOM     27  F   UNL     1      29.940  -3.096  55.439  1.00  0.00    -0.166 F 
ENDBRANCH  16  24
ENDBRANCH  10  12
ENDBRANCH   1   8
BRANCH   6  28
ATOM     28  N   UNL     1      37.306   0.881  48.936  1.00  0.00    -0.324 N 
ATOM     29  H   UNL     1      37.019   1.793  48.553  1.00  0.00     0.170 HD
BRANCH  28  30
ATOM     30  C   UNL     1      38.658   0.597  49.142  1.00  0.00     0.227 A 
ATOM     31  N   UNL     1      39.233  -0.012  50.170  1.00  0.00    -0.221 NA
ATOM     32  N   UNL     1      39.353   1.137  48.108  1.00  0.00    -0.213 NA
ATOM     33  C   UNL     1      40.575  -0.119  50.137  1.00  0.00     0.117 A 
ATOM     34  C   UNL     1      40.687   1.034  48.135  1.00  0.00     0.077 A 
ATOM     35  C   UNL     1      41.318   0.407  49.150  1.00  0.00     0.049 A 
BRANCH  34  36
ATOM     36  C   UNL     1      41.399   1.609  46.964  1.00  0.00     0.019 A 
ATOM     37  C   UNL     1      40.724   2.356  45.986  1.00  0.00     0.013 A 
ATOM     38  C   UNL     1      42.783   1.403  46.796  1.00  0.00     0.121 A 
ATOM     39  C   UNL     1      41.436   2.848  44.900  1.00  0.00     0.021 A 
ATOM     40  N   UNL     1      43.474   1.868  45.748  1.00  0.00    -0.264 NA
ATOM     41  C   UNL     1      42.807   2.601  44.841  1.00  0.00     0.111 A 
ENDBRANCH  34  36
ENDBRANCH  28  30
ENDBRANCH   6  28
TORSDOF 7
ENDMDL
MODEL 8
REMARK VINA RESULT:   -10.899      8.400     15.259
REMARK INTER + INTRA:         -14.286
REMARK INTER:                 -12.987
REMARK INTRA:                  -1.299
REMARK CONF_INDEPENDENT:        2.088
REMARK UNBOUND:                -1.299
REMARK SMILES Cc1cn(-c2cc(NC(=O)c3ccc(C)c(Nc4nccc(-c5cccnc5)n4)c3)cc(C(F)(F)F)c2)cn1
REMARK SMILES IDX 11 1 12 2 13 3 14 4 15 5 16 6 30 7 9 8 10 9 8 10 7 12 6 13
REMARK SMILES IDX 31 14 5 15 32 16 37 17 4 18 3 19 38 20 2 21 39 22 1 23 33 24
REMARK SMILES IDX 34 25 35 26 36 27 17 28 18 30 19 31 29 32 20 33 22 34 21 35
REMARK SMILES IDX 23 36 24 37 28 38 25 39 27 40 26 41
REMARK H PARENT 8 11 17 29
ROOT
ATOM      1  C   UNL     1      36.012  -1.728  49.327  1.00  0.00     0.042 A 
ATOM      2  C   UNL     1      35.216  -2.879  49.218  1.00  0.00     0.014 A 
ATOM      3  C   UNL     1      33.841  -2.837  49.451  1.00  0.00     0.006 A 
ATOM      4  C   UNL     1      33.220  -1.674  49.880  1.00  0.00    -0.027 A 
ATOM      5  C   UNL     1      31.721  -1.645  50.138  1.00  0.00     0.046 C 
ATOM      6  C   UNL     1      34.022  -0.554  50.090  1.00  0.00     0.045 A 
ATOM      7  C   UNL     1      35.397  -0.610  49.826  1.00  0.00     0.040 A 
ENDROOT
BRANCH   1   8
ATOM      8  C   UNL     1      37.484  -1.708  49.223  1.00  0.00     0.255 C 
ATOM      9  O   UNL     1      38.070  -1.388  50.229  1.00  0.00    -0.269 OA
ATOM     10  N   UNL     1      38.008  -2.280  48.129  1.00  0.00    -0.322 N 
ATOM     11  H   UNL     1      37.347  -2.626  47.420  1.00  0.00     0.170 HD
BRANCH  10  12
ATOM     12  C   UNL     1      39.362  -2.447  47.864  1.00  0.00     0.044 A 
ATOM     13  C   UNL     1      39.920  -2.024  46.632  1.00  0.00     0.052 A 
ATOM     14  C   UNL     1      40.188  -3.151  48.767  1.00  0.00     0.039 A 
ATOM     15  C   UNL     1      41.282  -2.179  46.361  1.00  0.00     0.049 A 
ATOM     16  C   UNL     1      41.580  -3.289  48.499  1.00  0.00     0.060 A 
ATOM     17  C   UNL     1      42.094  -2.830  47.284  1.00  0.00     0.039 A 
BRANCH  15  18
ATOM     18  N   UNL     1      41.852  -1.726  45.162  1.00  0.00    -0.306 N 
ATOM     19  C   UNL     1      42.151  -0.422  44.772  1.00  0.00     0.116 A 
ATOM     20  C   UNL     1      42.147  -2.465  44.086  1.00  0.00     0.204 A 
ATOM     21  C   UNL     1      42.608  -0.455  43.502  1.00  0.00     0.056 A 
ATOM     22  N   UNL     1      42.629  -1.745  43.101  1.00  0.00    -0.242 NA
ATOM     23  C   UNL     1      43.076   0.702  42.653  1.00  0.00     0.068 C 
ENDBRANCH  15  18
BRANCH  16  24
ATOM     24  C   UNL     1      42.442  -3.986  49.500  1.00  0.00     0.416 C 
ATOM     25  F   UNL     1      42.142  -3.727  50.788  1.00  0.00    -0.166 F 
ATOM     26  F   UNL     1      42.276  -5.302  49.438  1.00  0.00    -0.166 F 
ATOM     27  F   UNL     1      43.738  -3.624  49.401  1.00  0.00    -0.166 F 
ENDBRANCH  16  24
ENDBRANCH  10  12
ENDBRANCH   1   8
BRANCH   6  28
ATOM     28  N   UNL     1      33.399   0.670  50.365  1.00  0.00    -0.324 N 
ATOM     29  H   UNL     1      33.085   1.278  49.595  1.00  0.00     0.170 HD
BRANCH  28  30
ATOM     30  C   UNL     1      33.206   1.060  51.692  1.00  0.00     0.227 A 
ATOM     31  N   UNL     1      33.893   1.939  52.410  1.00  0.00    -0.221 NA
ATOM     32  N   UNL     1      32.196   0.307  52.199  1.00  0.00    -0.213 NA
ATOM     33  C   UNL     1      33.520   2.096  53.694  1.00  0.00     0.117 A 
ATOM     34  C   UNL     1      31.882   0.476  53.489  1.00  0.00     0.077 A 
ATOM     35  C   UNL     1      32.541   1.371  54.256  1.00  0.00     0.049 A 
BRANCH  34  36
ATOM     36  C   UNL     1      30.748  -0.345  53.987  1.00  0.00     0.019 A 
ATOM     37  C   UNL     1      29.660   0.234  54.659  1.00  0.00     0.013 A 
ATOM     38  C   UNL     1      30.745  -1.743  53.809  1.00  0.00     0.121 A 
ATOM     39  C   UNL     1      28.640  -0.586  55.124  1.00  0.00     0.021 A 
ATOM     40  N   UNL     1      29.768  -2.539  54.263  1.00  0.00    -0.264 NA
ATOM     41  C   UNL     1      28.727  -1.956  54.879  1.00  0.00     0.111 A 
ENDBRANCH  34  36
ENDBRANCH  28  30
ENDBRANCH   6  28
TORSDOF 7
ENDMDL
MODEL 9
REMARK VINA RESULT:   -10.854      4.537      7.440
REMARK INTER + INTRA:         -13.726
REMARK INTER:                 -12.943
REMARK INTRA:                  -0.783
REMARK CONF_INDEPENDENT:        2.088
REMARK UNBOUND:                -0.783
REMARK SMILES Cc1cn(-c2cc(NC(=O)c3ccc(C)c(Nc4nccc(-c5cccnc5)n4)c3)cc(C(F)(F)F)c2)cn1
REMARK SMILES IDX 11 1 12 2 13 3 14 4 15 5 16 6 30 7 9 8 10 9 8 10 7 12 6 13
REMARK SMILES IDX 31 14 5 15 32 16 37 17 4 18 3 19 38 20 2 21 39 22 1 23 33 24
REMARK SMILES IDX 34 25 35 26 36 27 17 28 18 30 19 31 29 32 20 33 22 34 21 35
REMARK SMILES IDX 23 36 24 37 28 38 25 39 27 40 26 41
REMARK H PARENT 8 11 17 29
ROOT
ATOM      1  C   UNL     1      23.057   5.838  52.834  1.00  0.00     0.042 A 
ATOM      2  C   UNL     1      22.727   5.535  51.505  1.00  0.00     0.014 A 
ATOM      3  C   UNL     1      23.315   4.459  50.837  1.00  0.00     0.006 A 
ATOM      4  C   UNL     1      24.309   3.700  51.433  1.00  0.00    -0.027 A 
ATOM      5  C   UNL     1      24.946   2.534  50.690  1.00  0.00     0.046 C 
ATOM      6  C   UNL     1      24.714   4.060  52.717  1.00  0.00     0.045 A 
ATOM      7  C   UNL     1      24.094   5.127  53.380  1.00  0.00     0.040 A 
ENDROOT
BRANCH   1   8
ATOM      8  C   UNL     1      22.582   7.025  53.571  1.00  0.00     0.255 C 
ATOM      9  O   UNL     1      23.420   7.864  53.798  1.00  0.00    -0.269 OA
ATOM     10  N   UNL     1      21.252   7.159  53.684  1.00  0.00    -0.322 N 
ATOM     11  H   UNL     1      20.672   6.395  53.309  1.00  0.00     0.170 HD
BRANCH  10  12
ATOM     12  C   UNL     1      20.586   8.233  54.260  1.00  0.00     0.044 A 
ATOM     13  C   UNL     1      19.566   8.919  53.555  1.00  0.00     0.052 A 
ATOM     14  C   UNL     1      20.992   8.741  55.513  1.00  0.00     0.039 A 
ATOM     15  C   UNL     1      18.884   9.995  54.130  1.00  0.00     0.049 A 
ATOM     16  C   UNL     1      20.280   9.823  56.107  1.00  0.00     0.060 A 
ATOM     17  C   UNL     1      19.261  10.452  55.388  1.00  0.00     0.039 A 
BRANCH  15  18
ATOM     18  N   UNL     1      17.844  10.654  53.456  1.00  0.00    -0.306 N 
ATOM     19  C   UNL     1      16.606  11.065  53.945  1.00  0.00     0.116 A 
ATOM     20  C   UNL     1      17.795  10.948  52.152  1.00  0.00     0.204 A 
ATOM     21  C   UNL     1      15.896  11.580  52.918  1.00  0.00     0.056 A 
ATOM     22  N   UNL     1      16.669  11.528  51.811  1.00  0.00    -0.242 NA
ATOM     23  C   UNL     1      14.507  12.172  52.953  1.00  0.00     0.068 C 
ENDBRANCH  15  18
BRANCH  16  24
ATOM     24  C   UNL     1      20.693  10.301  57.461  1.00  0.00     0.416 C 
ATOM     25  F   UNL     1      21.554  11.338  57.460  1.00  0.00    -0.166 F 
ATOM     26  F   UNL     1      19.659  10.803  58.125  1.00  0.00    -0.166 F 
ATOM     27  F   UNL     1      21.345   9.352  58.163  1.00  0.00    -0.166 F 
ENDBRANCH  16  24
ENDBRANCH  10  12
ENDBRANCH   1   8
BRANCH   6  28
ATOM     28  N   UNL     1      25.596   3.213  53.400  1.00  0.00    -0.324 N 
ATOM     29  H   UNL     1      25.358   2.863  54.339  1.00  0.00     0.170 HD
BRANCH  28  30
ATOM     30  C   UNL     1      26.801   2.846  52.797  1.00  0.00     0.227 A 
ATOM     31  N   UNL     1      27.430   3.418  51.778  1.00  0.00    -0.221 NA
ATOM     32  N   UNL     1      27.228   1.702  53.392  1.00  0.00    -0.213 NA
ATOM     33  C   UNL     1      28.568   2.829  51.362  1.00  0.00     0.117 A 
ATOM     34  C   UNL     1      28.346   1.136  52.922  1.00  0.00     0.077 A 
ATOM     35  C   UNL     1      29.031   1.690  51.899  1.00  0.00     0.049 A 
BRANCH  34  36
ATOM     36  C   UNL     1      28.789  -0.094  53.629  1.00  0.00     0.019 A 
ATOM     37  C   UNL     1      28.111  -0.577  54.760  1.00  0.00     0.013 A 
ATOM     38  C   UNL     1      29.921  -0.805  53.186  1.00  0.00     0.121 A 
ATOM     39  C   UNL     1      28.586  -1.717  55.395  1.00  0.00     0.021 A 
ATOM     40  N   UNL     1      30.388  -1.900  53.798  1.00  0.00    -0.264 NA
ATOM     41  C   UNL     1      29.706  -2.355  54.862  1.00  0.00     0.111 A 
ENDBRANCH  34  36
ENDBRANCH  28  30
ENDBRANCH   6  28
TORSDOF 7
ENDMDL
MODEL 10
REMARK VINA RESULT:   -10.819      4.578     13.440
REMARK INTER + INTRA:         -14.208
REMARK INTER:                 -12.908
REMARK INTRA:                  -1.301
REMARK CONF_INDEPENDENT:        2.088
REMARK UNBOUND:                -1.301
REMARK SMILES Cc1cn(-c2cc(NC(=O)c3ccc(C)c(Nc4nccc(-c5cccnc5)n4)c3)cc(C(F)(F)F)c2)cn1
REMARK SMILES IDX 11 1 12 2 13 3 14 4 15 5 16 6 30 7 9 8 10 9 8 10 7 12 6 13
REMARK SMILES IDX 31 14 5 15 32 16 37 17 4 18 3 19 38 20 2 21 39 22 1 23 33 24
REMARK SMILES IDX 34 25 35 26 36 27 17 28 18 30 19 31 29 32 20 33 22 34 21 35
REMARK SMILES IDX 23 36 24 37 28 38 25 39 27 40 26 41
REMARK H PARENT 8 11 17 29
ROOT
ATOM      1  C   UNL     1      21.153   7.075  54.152  1.00  0.00     0.042 A 
ATOM      2  C   UNL     1      20.937   7.204  55.532  1.00  0.00     0.014 A 
ATOM      3  C   UNL     1      20.215   8.277  56.058  1.00  0.00     0.006 A 
ATOM      4  C   UNL     1      19.757   9.301  55.245  1.00  0.00    -0.027 A 
ATOM      5  C   UNL     1      18.978  10.470  55.832  1.00  0.00     0.046 C 
ATOM      6  C   UNL     1      20.059   9.232  53.885  1.00  0.00     0.045 A 
ATOM      7  C   UNL     1      20.762   8.134  53.374  1.00  0.00     0.040 A 
ENDROOT
BRANCH   1   8
ATOM      8  C   UNL     1      22.008   6.047  53.525  1.00  0.00     0.255 C 
ATOM      9  O   UNL     1      21.879   4.930  53.962  1.00  0.00    -0.269 OA
ATOM     10  N   UNL     1      22.633   6.407  52.394  1.00  0.00    -0.322 N 
ATOM     11  H   UNL     1      22.523   7.385  52.090  1.00  0.00     0.170 HD
BRANCH  10  12
ATOM     12  C   UNL     1      23.415   5.582  51.596  1.00  0.00     0.044 A 
ATOM     13  C   UNL     1      24.499   4.854  52.147  1.00  0.00     0.052 A 
ATOM     14  C   UNL     1      23.224   5.544  50.198  1.00  0.00     0.039 A 
ATOM     15  C   UNL     1      25.286   4.013  51.354  1.00  0.00     0.049 A 
ATOM     16  C   UNL     1      24.012   4.670  49.396  1.00  0.00     0.060 A 
ATOM     17  C   UNL     1      25.051   3.947  49.984  1.00  0.00     0.039 A 
BRANCH  15  18
ATOM     18  N   UNL     1      26.334   3.256  51.897  1.00  0.00    -0.306 N 
ATOM     19  C   UNL     1      26.525   2.841  53.214  1.00  0.00     0.116 A 
ATOM     20  C   UNL     1      27.438   2.844  51.261  1.00  0.00     0.204 A 
ATOM     21  C   UNL     1      27.716   2.208  53.289  1.00  0.00     0.056 A 
ATOM     22  N   UNL     1      28.257   2.192  52.050  1.00  0.00    -0.242 NA
ATOM     23  C   UNL     1      28.353   1.567  54.498  1.00  0.00     0.068 C 
ENDBRANCH  15  18
BRANCH  16  24
ATOM     24  C   UNL     1      23.748   4.605  47.926  1.00  0.00     0.416 C 
ATOM     25  F   UNL     1      22.514   4.999  47.551  1.00  0.00    -0.166 F 
ATOM     26  F   UNL     1      24.522   5.457  47.264  1.00  0.00    -0.166 F 
ATOM     27  F   UNL     1      23.835   3.348  47.445  1.00  0.00    -0.166 F 
ENDBRANCH  16  24
ENDBRANCH  10  12
ENDBRANCH   1   8
BRANCH   6  28
ATOM     28  N   UNL     1      19.470  10.165  53.023  1.00  0.00    -0.324 N 
ATOM     29  H   UNL     1      20.054  10.724  52.386  1.00  0.00     0.170 HD
BRANCH  28  30
ATOM     30  C   UNL     1      18.083  10.332  53.034  1.00  0.00     0.227 A 
ATOM     31  N   UNL     1      17.378  11.448  52.904  1.00  0.00    -0.221 NA
ATOM     32  N   UNL     1      17.525   9.120  53.289  1.00  0.00    -0.213 NA
ATOM     33  C   UNL     1      16.039  11.333  52.997  1.00  0.00     0.117 A 
ATOM     34  C   UNL     1      16.194   9.061  53.405  1.00  0.00     0.077 A 
ATOM     35  C   UNL     1      15.431  10.166  53.263  1.00  0.00     0.049 A 
BRANCH  34  36
ATOM     36  C   UNL     1      15.630   7.708  53.650  1.00  0.00     0.019 A 
ATOM     37  C   UNL     1      14.829   7.436  54.770  1.00  0.00     0.013 A 
ATOM     38  C   UNL     1      15.900   6.649  52.761  1.00  0.00     0.121 A 
ATOM     39  C   UNL     1      14.350   6.146  54.961  1.00  0.00     0.021 A 
ATOM     40  N   UNL     1      15.448   5.402  52.944  1.00  0.00    -0.264 NA
ATOM     41  C   UNL     1      14.663   5.176  54.010  1.00  0.00     0.111 A 
ENDBRANCH  34  36
ENDBRANCH  28  30
ENDBRANCH   6  28
TORSDOF 7
ENDMDL
MODEL 11
REMARK VINA RESULT:   -10.704      3.914     11.647
REMARK INTER + INTRA:         -13.938
REMARK INTER:                 -12.792
REMARK INTRA:                  -1.147
REMARK CONF_INDEPENDENT:        2.088
REMARK UNBOUND:                -1.147
REMARK SMILES Cc1cn(-c2cc(NC(=O)c3ccc(C)c(Nc4nccc(-c5cccnc5)n4)c3)cc(C(F)(F)F)c2)cn1
REMARK SMILES IDX 11 1 12 2 13 3 14 4 15 5 16 6 30 7 9 8 10 9 8 10 7 12 6 13
REMARK SMILES IDX 31 14 5 15 32 16 37 17 4 18 3 19 38 20 2 21 39 22 1 23 33 24
REMARK SMILES IDX 34 25 35 26 36 27 17 28 18 30 19 31 29 32 20 33 22 34 21 35
REMARK SMILES IDX 23 36 24 37 28 38 25 39 27 40 26 41
REMARK H PARENT 8 11 17 29
ROOT
ATOM      1  C   UNL     1      25.647   3.597  51.852  1.00  0.00     0.042 A 
ATOM      2  C   UNL     1      24.645   3.092  51.009  1.00  0.00     0.014 A 
ATOM      3  C   UNL     1      23.336   3.571  51.069  1.00  0.00     0.006 A 
ATOM      4  C   UNL     1      22.955   4.505  52.019  1.00  0.00    -0.027 A 
ATOM      5  C   UNL     1      21.521   5.013  52.076  1.00  0.00     0.046 C 
ATOM      6  C   UNL     1      23.921   4.935  52.926  1.00  0.00     0.045 A 
ATOM      7  C   UNL     1      25.236   4.460  52.834  1.00  0.00     0.040 A 
ENDROOT
BRANCH   1   8
ATOM      8  C   UNL     1      27.020   3.062  51.945  1.00  0.00     0.255 C 
ATOM      9  O   UNL     1      27.593   2.921  50.892  1.00  0.00    -0.269 OA
ATOM     10  N   UNL     1      27.562   3.033  53.171  1.00  0.00    -0.322 N 
ATOM     11  H   UNL     1      26.959   3.321  53.956  1.00  0.00     0.170 HD
BRANCH  10  12
ATOM     12  C   UNL     1      28.861   2.651  53.480  1.00  0.00     0.044 A 
ATOM     13  C   UNL     1      29.530   1.664  52.714  1.00  0.00     0.052 A 
ATOM     14  C   UNL     1      29.500   3.148  54.637  1.00  0.00     0.039 A 
ATOM     15  C   UNL     1      30.840   1.279  53.012  1.00  0.00     0.049 A 
ATOM     16  C   UNL     1      30.843   2.772  54.925  1.00  0.00     0.060 A 
ATOM     17  C   UNL     1      31.476   1.818  54.126  1.00  0.00     0.039 A 
BRANCH  15  18
ATOM     18  N   UNL     1      31.526   0.334  52.234  1.00  0.00    -0.306 N 
ATOM     19  C   UNL     1      32.896   0.085  52.165  1.00  0.00     0.116 A 
ATOM     20  C   UNL     1      30.999  -0.478  51.311  1.00  0.00     0.204 A 
ATOM     21  C   UNL     1      33.107  -0.855  51.218  1.00  0.00     0.056 A 
ATOM     22  N   UNL     1      31.904  -1.218  50.718  1.00  0.00    -0.242 NA
ATOM     23  C   UNL     1      34.420  -1.466  50.792  1.00  0.00     0.068 C 
ENDBRANCH  15  18
BRANCH  16  24
ATOM     24  C   UNL     1      31.516   3.360  56.123  1.00  0.00     0.416 C 
ATOM     25  F   UNL     1      32.776   3.789  55.914  1.00  0.00    -0.166 F 
ATOM     26  F   UNL     1      30.907   4.474  56.513  1.00  0.00    -0.166 F 
ATOM     27  F   UNL     1      31.650   2.468  57.126  1.00  0.00    -0.166 F 
ENDBRANCH  16  24
ENDBRANCH  10  12
ENDBRANCH   1   8
BRANCH   6  28
ATOM     28  N   UNL     1      23.604   5.993  53.787  1.00  0.00    -0.324 N 
ATOM     29  H   UNL     1      22.710   6.494  53.687  1.00  0.00     0.170 HD
BRANCH  28  30
ATOM     30  C   UNL     1      24.510   6.364  54.783  1.00  0.00     0.227 A 
ATOM     31  N   UNL     1      25.837   6.358  54.745  1.00  0.00    -0.221 NA
ATOM     32  N   UNL     1      23.795   6.680  55.893  1.00  0.00    -0.213 NA
ATOM     33  C   UNL     1      26.476   6.726  55.872  1.00  0.00     0.117 A 
ATOM     34  C   UNL     1      24.475   7.009  56.998  1.00  0.00     0.077 A 
ATOM     35  C   UNL     1      25.825   7.035  57.005  1.00  0.00     0.049 A 
BRANCH  34  36
ATOM     36  C   UNL     1      23.647   7.380  58.175  1.00  0.00     0.019 A 
ATOM     37  C   UNL     1      22.245   7.407  58.109  1.00  0.00     0.013 A 
ATOM     38  C   UNL     1      24.256   7.732  59.395  1.00  0.00     0.121 A 
ATOM     39  C   UNL     1      21.524   7.786  59.234  1.00  0.00     0.021 A 
ATOM     40  N   UNL     1      23.566   8.106  60.481  1.00  0.00    -0.264 NA
ATOM     41  C   UNL     1      22.226   8.099  60.397  1.00  0.00     0.111 A 
ENDBRANCH  34  36
ENDBRANCH  28  30
ENDBRANCH   6  28
TORSDOF 7
ENDMDL
MODEL 12
REMARK VINA RESULT:   -10.678      3.438     12.719
REMARK INTER + INTRA:         -13.639
REMARK INTER:                 -12.766
REMARK INTRA:                  -0.873
REMARK CONF_INDEPENDENT:        2.088
REMARK UNBOUND:                -0.873
REMARK SMILES Cc1cn(-c2cc(NC(=O)c3ccc(C)c(Nc4nccc(-c5cccnc5)n4)c3)cc(C(F)(F)F)c2)cn1
REMARK SMILES IDX 11 1 12 2 13 3 14 4 15 5 16 6 30 7 9 8 10 9 8 10 7 12 6 13
REMARK SMILES IDX 31 14 5 15 32 16 37 17 4 18 3 19 38 20 2 21 39 22 1 23 33 24
REMARK SMILES IDX 34 25 35 26 36 27 17 28 18 30 19 31 29 32 20 33 22 34 21 35
REMARK SMILES IDX 23 36 24 37 28 38 25 39 27 40 26 41
REMARK H PARENT 8 11 17 29
ROOT
ATOM      1  C   UNL     1      25.838   3.625  51.565  1.00  0.00     0.042 A 
ATOM      2  C   UNL     1      25.650   3.597  50.175  1.00  0.00     0.014 A 
ATOM      3  C   UNL     1      24.608   4.300  49.568  1.00  0.00     0.006 A 
ATOM      4  C   UNL     1      23.669   4.985  50.321  1.00  0.00    -0.027 A 
ATOM      5  C   UNL     1      22.533   5.741  49.646  1.00  0.00     0.046 C 
ATOM      6  C   UNL     1      23.790   4.931  51.709  1.00  0.00     0.045 A 
ATOM      7  C   UNL     1      24.857   4.241  52.298  1.00  0.00     0.040 A 
ENDROOT
BRANCH   1   8
ATOM      8  C   UNL     1      26.830   2.815  52.298  1.00  0.00     0.255 C 
ATOM      9  O   UNL     1      26.646   2.722  53.488  1.00  0.00    -0.269 OA
ATOM     10  N   UNL     1      27.661   2.076  51.548  1.00  0.00    -0.322 N 
ATOM     11  H   UNL     1      27.588   2.182  50.527  1.00  0.00     0.170 HD
BRANCH  10  12
ATOM     12  C   UNL     1      28.612   1.182  52.024  1.00  0.00     0.044 A 
ATOM     13  C   UNL     1      29.806   0.937  51.301  1.00  0.00     0.052 A 
ATOM     14  C   UNL     1      28.356   0.407  53.176  1.00  0.00     0.039 A 
ATOM     15  C   UNL     1      30.772   0.046  51.776  1.00  0.00     0.049 A 
ATOM     16  C   UNL     1      29.352  -0.483  53.671  1.00  0.00     0.060 A 
ATOM     17  C   UNL     1      30.528  -0.672  52.942  1.00  0.00     0.039 A 
BRANCH  15  18
ATOM     18  N   UNL     1      31.976  -0.172  51.089  1.00  0.00    -0.306 N 
ATOM     19  C   UNL     1      32.344  -1.252  50.289  1.00  0.00     0.116 A 
ATOM     20  C   UNL     1      33.076   0.589  51.137  1.00  0.00     0.204 A 
ATOM     21  C   UNL     1      33.627  -1.075  49.905  1.00  0.00     0.056 A 
ATOM     22  N   UNL     1      34.056   0.099  50.419  1.00  0.00    -0.242 NA
ATOM     23  C   UNL     1      34.463  -1.966  49.018  1.00  0.00     0.068 C 
ENDBRANCH  15  18
BRANCH  16  24
ATOM     24  C   UNL     1      29.078  -1.245  54.926  1.00  0.00     0.416 C 
ATOM     25  F   UNL     1      28.513  -2.456  54.746  1.00  0.00    -0.166 F 
ATOM     26  F   UNL     1      30.208  -1.560  55.549  1.00  0.00    -0.166 F 
ATOM     27  F   UNL     1      28.205  -0.608  55.734  1.00  0.00    -0.166 F 
ENDBRANCH  16  24
ENDBRANCH  10  12
ENDBRANCH   1   8
BRANCH   6  28
ATOM     28  N   UNL     1      22.954   5.746  52.483  1.00  0.00    -0.324 N 
ATOM     29  H   UNL     1      22.432   5.348  53.277  1.00  0.00     0.170 HD
BRANCH  28  30
ATOM     30  C   UNL     1      22.833   7.101  52.170  1.00  0.00     0.227 A 
ATOM     31  N   UNL     1      23.617   7.852  51.407  1.00  0.00    -0.221 NA
ATOM     32  N   UNL     1      21.774   7.592  52.865  1.00  0.00    -0.213 NA
ATOM     33  C   UNL     1      23.295   9.156  51.306  1.00  0.00     0.117 A 
ATOM     34  C   UNL     1      21.513   8.900  52.758  1.00  0.00     0.077 A 
ATOM     35  C   UNL     1      22.271   9.702  51.979  1.00  0.00     0.049 A 
BRANCH  34  36
ATOM     36  C   UNL     1      20.324   9.380  53.509  1.00  0.00     0.019 A 
ATOM     37  C   UNL     1      20.081   8.983  54.834  1.00  0.00     0.013 A 
ATOM     38  C   UNL     1      19.393  10.244  52.898  1.00  0.00     0.121 A 
ATOM     39  C   UNL     1      18.939   9.444  55.477  1.00  0.00     0.021 A 
ATOM     40  N   UNL     1      18.287  10.685  53.511  1.00  0.00    -0.264 NA
ATOM     41  C   UNL     1      18.093  10.310  54.786  1.00  0.00     0.111 A 
ENDBRANCH  34  36
ENDBRANCH  28  30
ENDBRANCH   6  28
TORSDOF 7
ENDMDL
MODEL 13
REMARK VINA RESULT:   -10.640      1.781      2.707
REMARK INTER + INTRA:         -13.935
REMARK INTER:                 -12.728
REMARK INTRA:                  -1.207
REMARK CONF_INDEPENDENT:        2.088
REMARK UNBOUND:                -1.207
REMARK SMILES Cc1cn(-c2cc(NC(=O)c3ccc(C)c(Nc4nccc(-c5cccnc5)n4)c3)cc(C(F)(F)F)c2)cn1
REMARK SMILES IDX 11 1 12 2 13 3 14 4 15 5 16 6 30 7 9 8 10 9 8 10 7 12 6 13
REMARK SMILES IDX 31 14 5 15 32 16 37 17 4 18 3 19 38 20 2 21 39 22 1 23 33 24
REMARK SMILES IDX 34 25 35 26 36 27 17 28 18 30 19 31 29 32 20 33 22 34 21 35
REMARK SMILES IDX 23 36 24 37 28 38 25 39 27 40 26 41
REMARK H PARENT 8 11 17 29
ROOT
ATOM      1  C   UNL     1      29.303   1.382  52.312  1.00  0.00     0.042 A 
ATOM      2  C   UNL     1      29.826   1.223  53.604  1.00  0.00     0.014 A 
ATOM      3  C   UNL     1      31.155   0.849  53.810  1.00  0.00     0.006 A 
ATOM      4  C   UNL     1      31.986   0.538  52.746  1.00  0.00    -0.027 A 
ATOM      5  C   UNL     1      33.431   0.124  52.985  1.00  0.00     0.046 C 
ATOM      6  C   UNL     1      31.443   0.594  51.464  1.00  0.00     0.045 A 
ATOM      7  C   UNL     1      30.114   0.996  51.277  1.00  0.00     0.040 A 
ENDROOT
BRANCH   1   8
ATOM      8  C   UNL     1      27.884   1.650  52.004  1.00  0.00     0.255 C 
ATOM      9  O   UNL     1      27.149   0.695  52.075  1.00  0.00    -0.269 OA
ATOM     10  N   UNL     1      27.529   2.941  51.930  1.00  0.00    -0.322 N 
ATOM     11  H   UNL     1      28.279   3.639  52.026  1.00  0.00     0.170 HD
BRANCH  10  12
ATOM     12  C   UNL     1      26.240   3.422  51.734  1.00  0.00     0.044 A 
ATOM     13  C   UNL     1      25.503   3.983  52.806  1.00  0.00     0.052 A 
ATOM     14  C   UNL     1      25.592   3.254  50.491  1.00  0.00     0.039 A 
ATOM     15  C   UNL     1      24.210   4.479  52.616  1.00  0.00     0.049 A 
ATOM     16  C   UNL     1      24.283   3.780  50.294  1.00  0.00     0.060 A 
ATOM     17  C   UNL     1      23.603   4.352  51.371  1.00  0.00     0.039 A 
BRANCH  15  18
ATOM     18  N   UNL     1      23.487   5.074  53.662  1.00  0.00    -0.306 N 
ATOM     19  C   UNL     1      23.959   5.831  54.733  1.00  0.00     0.116 A 
ATOM     20  C   UNL     1      22.175   4.956  53.897  1.00  0.00     0.204 A 
ATOM     21  C   UNL     1      22.914   6.123  55.536  1.00  0.00     0.056 A 
ATOM     22  N   UNL     1      21.801   5.595  54.979  1.00  0.00    -0.242 NA
ATOM     23  C   UNL     1      22.919   6.936  56.808  1.00  0.00     0.068 C 
ENDBRANCH  15  18
BRANCH  16  24
ATOM     24  C   UNL     1      23.644   3.640  48.950  1.00  0.00     0.416 C 
ATOM     25  F   UNL     1      22.684   4.547  48.679  1.00  0.00    -0.166 F 
ATOM     26  F   UNL     1      24.521   3.869  47.979  1.00  0.00    -0.166 F 
ATOM     27  F   UNL     1      23.010   2.459  48.804  1.00  0.00    -0.166 F 
ENDBRANCH  16  24
ENDBRANCH  10  12
ENDBRANCH   1   8
BRANCH   6  28
ATOM     28  N   UNL     1      32.303   0.444  50.368  1.00  0.00    -0.324 N 
ATOM     29  H   UNL     1      32.536   1.254  49.777  1.00  0.00     0.170 HD
BRANCH  28  30
ATOM     30  C   UNL     1      32.841  -0.813  50.084  1.00  0.00     0.227 A 
ATOM     31  N   UNL     1      32.223  -1.985  50.009  1.00  0.00    -0.221 NA
ATOM     32  N   UNL     1      34.185  -0.668  49.964  1.00  0.00    -0.213 NA
ATOM     33  C   UNL     1      32.994  -3.061  49.760  1.00  0.00     0.117 A 
ATOM     34  C   UNL     1      34.913  -1.770  49.749  1.00  0.00     0.077 A 
ATOM     35  C   UNL     1      34.330  -2.983  49.647  1.00  0.00     0.049 A 
BRANCH  34  36
ATOM     36  C   UNL     1      36.375  -1.553  49.590  1.00  0.00     0.019 A 
ATOM     37  C   UNL     1      37.108  -2.198  48.581  1.00  0.00     0.013 A 
ATOM     38  C   UNL     1      37.071  -0.698  50.466  1.00  0.00     0.121 A 
ATOM     39  C   UNL     1      38.477  -1.977  48.495  1.00  0.00     0.021 A 
ATOM     40  N   UNL     1      38.392  -0.487  50.394  1.00  0.00    -0.264 NA
ATOM     41  C   UNL     1      39.064  -1.096  49.403  1.00  0.00     0.111 A 
ENDBRANCH  34  36
ENDBRANCH  28  30
ENDBRANCH   6  28
TORSDOF 7
ENDMDL
MODEL 14
REMARK VINA RESULT:   -10.490      5.672     10.820
REMARK INTER + INTRA:         -13.743
REMARK INTER:                 -12.578
REMARK INTRA:                  -1.165
REMARK CONF_INDEPENDENT:        2.088
REMARK UNBOUND:                -1.165
REMARK SMILES Cc1cn(-c2cc(NC(=O)c3ccc(C)c(Nc4nccc(-c5cccnc5)n4)c3)cc(C(F)(F)F)c2)cn1
REMARK SMILES IDX 11 1 12 2 13 3 14 4 15 5 16 6 30 7 9 8 10 9 8 10 7 12 6 13
REMARK SMILES IDX 31 14 5 15 32 16 37 17 4 18 3 19 38 20 2 21 39 22 1 23 33 24
REMARK SMILES IDX 34 25 35 26 36 27 17 28 18 30 19 31 29 32 20 33 22 34 21 35
REMARK SMILES IDX 23 36 24 37 28 38 25 39 27 40 26 41
REMARK H PARENT 8 11 17 29
ROOT
ATOM      1  C   UNL     1      22.523   6.455  55.284  1.00  0.00     0.042 A 
ATOM      2  C   UNL     1      21.829   7.601  54.869  1.00  0.00     0.014 A 
ATOM      3  C   UNL     1      21.346   8.532  55.790  1.00  0.00     0.006 A 
ATOM      4  C   UNL     1      21.460   8.319  57.154  1.00  0.00    -0.027 A 
ATOM      5  C   UNL     1      20.922   9.339  58.147  1.00  0.00     0.046 C 
ATOM      6  C   UNL     1      22.057   7.131  57.574  1.00  0.00     0.045 A 
ATOM      7  C   UNL     1      22.558   6.222  56.634  1.00  0.00     0.040 A 
ENDROOT
BRANCH   1   8
ATOM      8  C   UNL     1      22.955   5.361  54.392  1.00  0.00     0.255 C 
ATOM      9  O   UNL     1      22.093   4.576  54.080  1.00  0.00    -0.269 OA
ATOM     10  N   UNL     1      24.166   5.498  53.831  1.00  0.00    -0.322 N 
ATOM     11  H   UNL     1      24.724   6.315  54.117  1.00  0.00     0.170 HD
BRANCH  10  12
ATOM     12  C   UNL     1      24.737   4.638  52.902  1.00  0.00     0.044 A 
ATOM     13  C   UNL     1      24.012   4.217  51.759  1.00  0.00     0.052 A 
ATOM     14  C   UNL     1      26.007   4.068  53.136  1.00  0.00     0.039 A 
ATOM     15  C   UNL     1      24.581   3.360  50.814  1.00  0.00     0.049 A 
ATOM     16  C   UNL     1      26.594   3.212  52.160  1.00  0.00     0.060 A 
ATOM     17  C   UNL     1      25.855   2.847  51.033  1.00  0.00     0.039 A 
BRANCH  15  18
ATOM     18  N   UNL     1      23.887   2.970  49.658  1.00  0.00    -0.306 N 
ATOM     19  C   UNL     1      23.003   1.907  49.484  1.00  0.00     0.116 A 
ATOM     20  C   UNL     1      24.006   3.501  48.435  1.00  0.00     0.204 A 
ATOM     21  C   UNL     1      22.644   1.865  48.182  1.00  0.00     0.056 A 
ATOM     22  N   UNL     1      23.257   2.890  47.549  1.00  0.00    -0.242 NA
ATOM     23  C   UNL     1      21.692   0.905  47.511  1.00  0.00     0.068 C 
ENDBRANCH  15  18
BRANCH  16  24
ATOM     24  C   UNL     1      27.965   2.672  52.406  1.00  0.00     0.416 C 
ATOM     25  F   UNL     1      28.946   3.258  51.691  1.00  0.00    -0.166 F 
ATOM     26  F   UNL     1      28.355   2.909  53.653  1.00  0.00    -0.166 F 
ATOM     27  F   UNL     1      28.070   1.369  52.072  1.00  0.00    -0.166 F 
ENDBRANCH  16  24
ENDBRANCH  10  12
ENDBRANCH   1   8
BRANCH   6  28
ATOM     28  N   UNL     1      22.330   6.969  58.939  1.00  0.00    -0.324 N 
ATOM     29  H   UNL     1      21.762   6.326  59.508  1.00  0.00     0.170 HD
BRANCH  28  30
ATOM     30  C   UNL     1      23.377   7.686  59.520  1.00  0.00     0.227 A 
ATOM     31  N   UNL     1      23.625   8.988  59.467  1.00  0.00    -0.221 NA
ATOM     32  N   UNL     1      24.203   6.792  60.124  1.00  0.00    -0.213 NA
ATOM     33  C   UNL     1      24.740   9.419  60.086  1.00  0.00     0.117 A 
ATOM     34  C   UNL     1      25.315   7.264  60.698  1.00  0.00     0.077 A 
ATOM     35  C   UNL     1      25.602   8.583  60.686  1.00  0.00     0.049 A 
BRANCH  34  36
ATOM     36  C   UNL     1      26.167   6.251  61.376  1.00  0.00     0.019 A 
ATOM     37  C   UNL     1      26.400   6.293  62.760  1.00  0.00     0.013 A 
ATOM     38  C   UNL     1      26.779   5.221  60.635  1.00  0.00     0.121 A 
ATOM     39  C   UNL     1      27.225   5.335  63.334  1.00  0.00     0.021 A 
ATOM     40  N   UNL     1      27.582   4.299  61.183  1.00  0.00    -0.264 NA
ATOM     41  C   UNL     1      27.767   4.348  62.512  1.00  0.00     0.111 A 
ENDBRANCH  34  36
ENDBRANCH  28  30
ENDBRANCH   6  28
TORSDOF 7
ENDMDL
MODEL 15
REMARK VINA RESULT:   -10.482      3.412      5.474
REMARK INTER + INTRA:         -13.649
REMARK INTER:                 -12.570
REMARK INTRA:                  -1.078
REMARK CONF_INDEPENDENT:        2.088
REMARK UNBOUND:                -1.078
REMARK SMILES Cc1cn(-c2cc(NC(=O)c3ccc(C)c(Nc4nccc(-c5cccnc5)n4)c3)cc(C(F)(F)F)c2)cn1
REMARK SMILES IDX 11 1 12 2 13 3 14 4 15 5 16 6 30 7 9 8 10 9 8 10 7 12 6 13
REMARK SMILES IDX 31 14 5 15 32 16 37 17 4 18 3 19 38 20 2 21 39 22 1 23 33 24
REMARK SMILES IDX 34 25 35 26 36 27 17 28 18 30 19 31 29 32 20 33 22 34 21 35
REMARK SMILES IDX 23 36 24 37 28 38 25 39 27 40 26 41
REMARK H PARENT 8 11 17 29
ROOT
ATOM      1  C   UNL     1      27.411   2.208  52.334  1.00  0.00     0.042 A 
ATOM      2  C   UNL     1      27.791   1.043  51.651  1.00  0.00     0.014 A 
ATOM      3  C   UNL     1      28.782   0.198  52.151  1.00  0.00     0.006 A 
ATOM      4  C   UNL     1      29.488   0.519  53.299  1.00  0.00    -0.027 A 
ATOM      5  C   UNL     1      30.572  -0.409  53.829  1.00  0.00     0.046 C 
ATOM      6  C   UNL     1      29.187   1.727  53.926  1.00  0.00     0.045 A 
ATOM      7  C   UNL     1      28.171   2.549  53.423  1.00  0.00     0.040 A 
ENDROOT
BRANCH   1   8
ATOM      8  C   UNL     1      26.468   3.219  51.818  1.00  0.00     0.255 C 
ATOM      9  O   UNL     1      26.367   3.268  50.616  1.00  0.00    -0.269 OA
ATOM     10  N   UNL     1      25.654   3.786  52.722  1.00  0.00    -0.322 N 
ATOM     11  H   UNL     1      25.795   3.523  53.707  1.00  0.00     0.170 HD
BRANCH  10  12
ATOM     12  C   UNL     1      24.639   4.695  52.449  1.00  0.00     0.044 A 
ATOM     13  C   UNL     1      23.820   5.202  53.488  1.00  0.00     0.052 A 
ATOM     14  C   UNL     1      24.324   5.042  51.117  1.00  0.00     0.039 A 
ATOM     15  C   UNL     1      22.803   6.124  53.225  1.00  0.00     0.049 A 
ATOM     16  C   UNL     1      23.303   5.999  50.854  1.00  0.00     0.060 A 
ATOM     17  C   UNL     1      22.538   6.496  51.911  1.00  0.00     0.039 A 
BRANCH  15  18
ATOM     18  N   UNL     1      22.013   6.664  54.252  1.00  0.00    -0.306 N 
ATOM     19  C   UNL     1      21.917   6.267  55.584  1.00  0.00     0.116 A 
ATOM     20  C   UNL     1      21.101   7.636  54.134  1.00  0.00     0.204 A 
ATOM     21  C   UNL     1      20.968   7.019  56.182  1.00  0.00     0.056 A 
ATOM     22  N   UNL     1      20.492   7.892  55.266  1.00  0.00    -0.242 NA
ATOM     23  C   UNL     1      20.517   6.974  57.622  1.00  0.00     0.068 C 
ENDBRANCH  15  18
BRANCH  16  24
ATOM     24  C   UNL     1      23.031   6.393  49.439  1.00  0.00     0.416 C 
ATOM     25  F   UNL     1      22.884   7.717  49.234  1.00  0.00    -0.166 F 
ATOM     26  F   UNL     1      24.066   6.107  48.657  1.00  0.00    -0.166 F 
ATOM     27  F   UNL     1      21.875   5.874  48.975  1.00  0.00    -0.166 F 
ENDBRANCH  16  24
ENDBRANCH  10  12
ENDBRANCH   1   8
BRANCH   6  28
ATOM     28  N   UNL     1      29.769   1.995  55.172  1.00  0.00    -0.324 N 
ATOM     29  H   UNL     1      29.323   1.659  56.037  1.00  0.00     0.170 HD
BRANCH  28  30
ATOM     30  C   UNL     1      30.960   2.721  55.231  1.00  0.00     0.227 A 
ATOM     31  N   UNL     1      31.894   2.865  54.300  1.00  0.00    -0.221 NA
ATOM     32  N   UNL     1      31.070   3.230  56.485  1.00  0.00    -0.213 NA
ATOM     33  C   UNL     1      32.977   3.592  54.636  1.00  0.00     0.117 A 
ATOM     34  C   UNL     1      32.179   3.918  56.782  1.00  0.00     0.077 A 
ATOM     35  C   UNL     1      33.150   4.107  55.864  1.00  0.00     0.049 A 
BRANCH  34  36
ATOM     36  C   UNL     1      32.235   4.484  58.156  1.00  0.00     0.019 A 
ATOM     37  C   UNL     1      32.605   3.699  59.260  1.00  0.00     0.013 A 
ATOM     38  C   UNL     1      31.901   5.832  58.388  1.00  0.00     0.121 A 
ATOM     39  C   UNL     1      32.616   4.275  60.524  1.00  0.00     0.021 A 
ATOM     40  N   UNL     1      31.901   6.391  59.605  1.00  0.00    -0.264 NA
ATOM     41  C   UNL     1      32.284   5.624  60.640  1.00  0.00     0.111 A 
ENDBRANCH  34  36
ENDBRANCH  28  30
ENDBRANCH   6  28
TORSDOF 7
ENDMDL
MODEL 16
REMARK VINA RESULT:   -10.442      5.235      8.078
REMARK INTER + INTRA:         -13.728
REMARK INTER:                 -12.530
REMARK INTRA:                  -1.198
REMARK CONF_INDEPENDENT:        2.088
REMARK UNBOUND:                -1.198
REMARK SMILES Cc1cn(-c2cc(NC(=O)c3ccc(C)c(Nc4nccc(-c5cccnc5)n4)c3)cc(C(F)(F)F)c2)cn1
REMARK SMILES IDX 11 1 12 2 13 3 14 4 15 5 16 6 30 7 9 8 10 9 8 10 7 12 6 13
REMARK SMILES IDX 31 14 5 15 32 16 37 17 4 18 3 19 38 20 2 21 39 22 1 23 33 24
REMARK SMILES IDX 34 25 35 26 36 27 17 28 18 30 19 31 29 32 20 33 22 34 21 35
REMARK SMILES IDX 23 36 24 37 28 38 25 39 27 40 26 41
REMARK H PARENT 8 11 17 29
ROOT
ATOM      1  C   UNL     1      24.505   5.881  54.246  1.00  0.00     0.042 A 
ATOM      2  C   UNL     1      23.901   6.619  53.216  1.00  0.00     0.014 A 
ATOM      3  C   UNL     1      23.775   6.099  51.927  1.00  0.00     0.006 A 
ATOM      4  C   UNL     1      24.316   4.868  51.593  1.00  0.00    -0.027 A 
ATOM      5  C   UNL     1      24.177   4.317  50.180  1.00  0.00     0.046 C 
ATOM      6  C   UNL     1      25.008   4.175  52.585  1.00  0.00     0.045 A 
ATOM      7  C   UNL     1      25.101   4.703  53.879  1.00  0.00     0.040 A 
ENDROOT
BRANCH   1   8
ATOM      8  C   UNL     1      24.793   6.399  55.597  1.00  0.00     0.255 C 
ATOM      9  O   UNL     1      25.887   6.886  55.744  1.00  0.00    -0.269 OA
ATOM     10  N   UNL     1      23.744   6.502  56.427  1.00  0.00    -0.322 N 
ATOM     11  H   UNL     1      22.839   6.152  56.083  1.00  0.00     0.170 HD
BRANCH  10  12
ATOM     12  C   UNL     1      23.767   7.037  57.709  1.00  0.00     0.044 A 
ATOM     13  C   UNL     1      24.719   6.599  58.663  1.00  0.00     0.052 A 
ATOM     14  C   UNL     1      22.767   7.942  58.128  1.00  0.00     0.039 A 
ATOM     15  C   UNL     1      24.757   7.139  59.952  1.00  0.00     0.049 A 
ATOM     16  C   UNL     1      22.820   8.507  59.434  1.00  0.00     0.060 A 
ATOM     17  C   UNL     1      23.795   8.069  60.333  1.00  0.00     0.039 A 
BRANCH  15  18
ATOM     18  N   UNL     1      25.722   6.743  60.890  1.00  0.00    -0.306 N 
ATOM     19  C   UNL     1      25.973   5.472  61.404  1.00  0.00     0.116 A 
ATOM     20  C   UNL     1      26.557   7.540  61.566  1.00  0.00     0.204 A 
ATOM     21  C   UNL     1      26.937   5.580  62.344  1.00  0.00     0.056 A 
ATOM     22  N   UNL     1      27.312   6.877  62.407  1.00  0.00    -0.242 NA
ATOM     23  C   UNL     1      27.560   4.478  63.167  1.00  0.00     0.068 C 
ENDBRANCH  15  18
BRANCH  16  24
ATOM     24  C   UNL     1      21.783   9.507  59.830  1.00  0.00     0.416 C 
ATOM     25  F   UNL     1      20.732   9.600  58.992  1.00  0.00    -0.166 F 
ATOM     26  F   UNL     1      21.197   9.160  60.970  1.00  0.00    -0.166 F 
ATOM     27  F   UNL     1      22.270  10.765  59.862  1.00  0.00    -0.166 F 
ENDBRANCH  16  24
ENDBRANCH  10  12
ENDBRANCH   1   8
BRANCH   6  28
ATOM     28  N   UNL     1      25.420   2.863  52.318  1.00  0.00    -0.324 N 
ATOM     29  H   UNL     1      24.731   2.098  52.293  1.00  0.00     0.170 HD
BRANCH  28  30
ATOM     30  C   UNL     1      26.771   2.602  52.086  1.00  0.00     0.227 A 
ATOM     31  N   UNL     1      27.610   3.222  51.265  1.00  0.00    -0.221 NA
ATOM     32  N   UNL     1      27.109   1.504  52.810  1.00  0.00    -0.213 NA
ATOM     33  C   UNL     1      28.864   2.734  51.200  1.00  0.00     0.117 A 
ATOM     34  C   UNL     1      28.357   1.037  52.687  1.00  0.00     0.077 A 
ATOM     35  C   UNL     1      29.253   1.643  51.879  1.00  0.00     0.049 A 
BRANCH  34  36
ATOM     36  C   UNL     1      28.686  -0.145  53.526  1.00  0.00     0.019 A 
ATOM     37  C   UNL     1      27.902  -0.501  54.635  1.00  0.00     0.013 A 
ATOM     38  C   UNL     1      29.814  -0.937  53.235  1.00  0.00     0.121 A 
ATOM     39  C   UNL     1      28.272  -1.601  55.398  1.00  0.00     0.021 A 
ATOM     40  N   UNL     1      30.180  -1.994  53.971  1.00  0.00    -0.264 NA
ATOM     41  C   UNL     1      29.398  -2.327  55.011  1.00  0.00     0.111 A 
ENDBRANCH  34  36
ENDBRANCH  28  30
ENDBRANCH   6  28
TORSDOF 7
ENDMDL
MODEL 17
REMARK VINA RESULT:   -10.398      3.665     12.471
REMARK INTER + INTRA:         -13.711
REMARK INTER:                 -12.486
REMARK INTRA:                  -1.225
REMARK CONF_INDEPENDENT:        2.088
REMARK UNBOUND:                -1.225
REMARK SMILES Cc1cn(-c2cc(NC(=O)c3ccc(C)c(Nc4nccc(-c5cccnc5)n4)c3)cc(C(F)(F)F)c2)cn1
REMARK SMILES IDX 11 1 12 2 13 3 14 4 15 5 16 6 30 7 9 8 10 9 8 10 7 12 6 13
REMARK SMILES IDX 31 14 5 15 32 16 37 17 4 18 3 19 38 20 2 21 39 22 1 23 33 24
REMARK SMILES IDX 34 25 35 26 36 27 17 28 18 30 19 31 29 32 20 33 22 34 21 35
REMARK SMILES IDX 23 36 24 37 28 38 25 39 27 40 26 41
REMARK H PARENT 8 11 17 29
ROOT
ATOM      1  C   UNL     1      25.793   3.510  51.792  1.00  0.00     0.042 A 
ATOM      2  C   UNL     1      24.813   2.854  51.032  1.00  0.00     0.014 A 
ATOM      3  C   UNL     1      23.472   3.238  51.088  1.00  0.00     0.006 A 
ATOM      4  C   UNL     1      23.044   4.228  51.958  1.00  0.00    -0.027 A 
ATOM      5  C   UNL     1      21.578   4.632  52.014  1.00  0.00     0.046 C 
ATOM      6  C   UNL     1      23.997   4.813  52.791  1.00  0.00     0.045 A 
ATOM      7  C   UNL     1      25.342   4.430  52.702  1.00  0.00     0.040 A 
ENDROOT
BRANCH   1   8
ATOM      8  C   UNL     1      27.205   3.090  51.890  1.00  0.00     0.255 C 
ATOM      9  O   UNL     1      27.856   3.222  50.883  1.00  0.00    -0.269 OA
ATOM     10  N   UNL     1      27.667   2.853  53.127  1.00  0.00    -0.322 N 
ATOM     11  H   UNL     1      26.989   2.916  53.899  1.00  0.00     0.170 HD
BRANCH  10  12
ATOM     12  C   UNL     1      28.976   2.529  53.461  1.00  0.00     0.044 A 
ATOM     13  C   UNL     1      29.705   1.577  52.706  1.00  0.00     0.052 A 
ATOM     14  C   UNL     1      29.568   3.050  54.632  1.00  0.00     0.039 A 
ATOM     15  C   UNL     1      31.025   1.252  53.028  1.00  0.00     0.049 A 
ATOM     16  C   UNL     1      30.921   2.735  54.946  1.00  0.00     0.060 A 
ATOM     17  C   UNL     1      31.613   1.814  54.156  1.00  0.00     0.039 A 
BRANCH  15  18
ATOM     18  N   UNL     1      31.770   0.342  52.262  1.00  0.00    -0.306 N 
ATOM     19  C   UNL     1      31.331  -0.528  51.265  1.00  0.00     0.116 A 
ATOM     20  C   UNL     1      33.069   0.054  52.399  1.00  0.00     0.204 A 
ATOM     21  C   UNL     1      32.383  -1.275  50.864  1.00  0.00     0.056 A 
ATOM     22  N   UNL     1      33.468  -0.873  51.563  1.00  0.00    -0.242 NA
ATOM     23  C   UNL     1      32.411  -2.341  49.796  1.00  0.00     0.068 C 
ENDBRANCH  15  18
BRANCH  16  24
ATOM     24  C   UNL     1      31.542   3.348  56.159  1.00  0.00     0.416 C 
ATOM     25  F   UNL     1      32.803   3.793  55.990  1.00  0.00    -0.166 F 
ATOM     26  F   UNL     1      30.903   4.458  56.512  1.00  0.00    -0.166 F 
ATOM     27  F   UNL     1      31.653   2.471  57.178  1.00  0.00    -0.166 F 
ENDBRANCH  16  24
ENDBRANCH  10  12
ENDBRANCH   1   8
BRANCH   6  28
ATOM     28  N   UNL     1      23.621   5.923  53.558  1.00  0.00    -0.324 N 
ATOM     29  H   UNL     1      23.669   5.883  54.586  1.00  0.00     0.170 HD
BRANCH  28  30
ATOM     30  C   UNL     1      23.181   7.083  52.918  1.00  0.00     0.227 A 
ATOM     31  N   UNL     1      23.747   7.748  51.920  1.00  0.00    -0.221 NA
ATOM     32  N   UNL     1      22.058   7.504  53.555  1.00  0.00    -0.213 NA
ATOM     33  C   UNL     1      23.130   8.875  51.515  1.00  0.00     0.117 A 
ATOM     34  C   UNL     1      21.498   8.645  53.139  1.00  0.00     0.077 A 
ATOM     35  C   UNL     1      22.026   9.349  52.114  1.00  0.00     0.049 A 
BRANCH  34  36
ATOM     36  C   UNL     1      20.252   9.044  53.844  1.00  0.00     0.019 A 
ATOM     37  C   UNL     1      19.589   8.167  54.718  1.00  0.00     0.013 A 
ATOM     38  C   UNL     1      19.691  10.320  53.640  1.00  0.00     0.121 A 
ATOM     39  C   UNL     1      18.414   8.585  55.330  1.00  0.00     0.021 A 
ATOM     40  N   UNL     1      18.555  10.726  54.221  1.00  0.00    -0.264 NA
ATOM     41  C   UNL     1      17.955   9.876  55.071  1.00  0.00     0.111 A 
ENDBRANCH  34  36
ENDBRANCH  28  30
ENDBRANCH   6  28
TORSDOF 7
ENDMDL
MODEL 18
REMARK VINA RESULT:   -10.396      3.721     11.754
REMARK INTER + INTRA:         -13.658
REMARK INTER:                 -12.484
REMARK INTRA:                  -1.174
REMARK CONF_INDEPENDENT:        2.088
REMARK UNBOUND:                -1.174
REMARK SMILES Cc1cn(-c2cc(NC(=O)c3ccc(C)c(Nc4nccc(-c5cccnc5)n4)c3)cc(C(F)(F)F)c2)cn1
REMARK SMILES IDX 11 1 12 2 13 3 14 4 15 5 16 6 30 7 9 8 10 9 8 10 7 12 6 13
REMARK SMILES IDX 31 14 5 15 32 16 37 17 4 18 3 19 38 20 2 21 39 22 1 23 33 24
REMARK SMILES IDX 34 25 35 26 36 27 17 28 18 30 19 31 29 32 20 33 22 34 21 35
REMARK SMILES IDX 23 36 24 37 28 38 25 39 27 40 26 41
REMARK H PARENT 8 11 17 29
ROOT
ATOM      1  C   UNL     1      25.859   3.456  52.115  1.00  0.00     0.042 A 
ATOM      2  C   UNL     1      25.223   3.229  50.885  1.00  0.00     0.014 A 
ATOM      3  C   UNL     1      24.258   4.108  50.392  1.00  0.00     0.006 A 
ATOM      4  C   UNL     1      23.828   5.195  51.138  1.00  0.00    -0.027 A 
ATOM      5  C   UNL     1      22.769   6.141  50.592  1.00  0.00     0.046 C 
ATOM      6  C   UNL     1      24.381   5.367  52.406  1.00  0.00     0.045 A 
ATOM      7  C   UNL     1      25.367   4.488  52.871  1.00  0.00     0.040 A 
ENDROOT
BRANCH   1   8
ATOM      8  C   UNL     1      26.793   2.517  52.767  1.00  0.00     0.255 C 
ATOM      9  O   UNL     1      26.443   2.103  53.845  1.00  0.00    -0.269 OA
ATOM     10  N   UNL     1      27.784   2.039  51.999  1.00  0.00    -0.322 N 
ATOM     11  H   UNL     1      27.855   2.412  51.042  1.00  0.00     0.170 HD
BRANCH  10  12
ATOM     12  C   UNL     1      28.722   1.088  52.377  1.00  0.00     0.044 A 
ATOM     13  C   UNL     1      29.911   0.902  51.629  1.00  0.00     0.052 A 
ATOM     14  C   UNL     1      28.457   0.202  53.444  1.00  0.00     0.039 A 
ATOM     15  C   UNL     1      30.866  -0.046  52.007  1.00  0.00     0.049 A 
ATOM     16  C   UNL     1      29.441  -0.748  53.841  1.00  0.00     0.060 A 
ATOM     17  C   UNL     1      30.614  -0.877  53.093  1.00  0.00     0.039 A 
BRANCH  15  18
ATOM     18  N   UNL     1      32.066  -0.208  51.298  1.00  0.00    -0.306 N 
ATOM     19  C   UNL     1      32.406  -1.185  50.364  1.00  0.00     0.116 A 
ATOM     20  C   UNL     1      33.187   0.507  51.445  1.00  0.00     0.204 A 
ATOM     21  C   UNL     1      33.695  -0.998  50.007  1.00  0.00     0.056 A 
ATOM     22  N   UNL     1      34.156   0.085  50.670  1.00  0.00    -0.242 NA
ATOM     23  C   UNL     1      34.507  -1.790  49.011  1.00  0.00     0.068 C 
ENDBRANCH  15  18
BRANCH  16  24
ATOM     24  C   UNL     1      29.159  -1.632  55.012  1.00  0.00     0.416 C 
ATOM     25  F   UNL     1      28.279  -1.134  55.903  1.00  0.00    -0.166 F 
ATOM     26  F   UNL     1      28.558  -2.753  54.629  1.00  0.00    -0.166 F 
ATOM     27  F   UNL     1      30.260  -1.866  55.756  1.00  0.00    -0.166 F 
ENDBRANCH  16  24
ENDBRANCH  10  12
ENDBRANCH   1   8
BRANCH   6  28
ATOM     28  N   UNL     1      24.085   6.542  53.108  1.00  0.00    -0.324 N 
ATOM     29  H   UNL     1      24.523   7.434  52.836  1.00  0.00     0.170 HD
BRANCH  28  30
ATOM     30  C   UNL     1      23.192   6.495  54.180  1.00  0.00     0.227 A 
ATOM     31  N   UNL     1      21.872   6.366  54.159  1.00  0.00    -0.221 NA
ATOM     32  N   UNL     1      23.905   6.690  55.319  1.00  0.00    -0.213 NA
ATOM     33  C   UNL     1      21.241   6.395  55.348  1.00  0.00     0.117 A 
ATOM     34  C   UNL     1      23.231   6.744  56.474  1.00  0.00     0.077 A 
ATOM     35  C   UNL     1      21.889   6.599  56.506  1.00  0.00     0.049 A 
BRANCH  34  36
ATOM     36  C   UNL     1      24.060   6.923  57.694  1.00  0.00     0.019 A 
ATOM     37  C   UNL     1      25.462   6.971  57.630  1.00  0.00     0.013 A 
ATOM     38  C   UNL     1      23.454   7.035  58.961  1.00  0.00     0.121 A 
ATOM     39  C   UNL     1      26.187   7.115  58.807  1.00  0.00     0.021 A 
ATOM     40  N   UNL     1      24.147   7.166  60.099  1.00  0.00    -0.264 NA
ATOM     41  C   UNL     1      25.485   7.235  60.006  1.00  0.00     0.111 A 
ENDBRANCH  34  36
ENDBRANCH  28  30
ENDBRANCH   6  28
TORSDOF 7
ENDMDL
MODEL 19
REMARK VINA RESULT:   -10.246      7.944     14.876
REMARK INTER + INTRA:         -13.673
REMARK INTER:                 -12.334
REMARK INTRA:                  -1.339
REMARK CONF_INDEPENDENT:        2.088
REMARK UNBOUND:                -1.339
REMARK SMILES Cc1cn(-c2cc(NC(=O)c3ccc(C)c(Nc4nccc(-c5cccnc5)n4)c3)cc(C(F)(F)F)c2)cn1
REMARK SMILES IDX 11 1 12 2 13 3 14 4 15 5 16 6 30 7 9 8 10 9 8 10 7 12 6 13
REMARK SMILES IDX 31 14 5 15 32 16 37 17 4 18 3 19 38 20 2 21 39 22 1 23 33 24
REMARK SMILES IDX 34 25 35 26 36 27 17 28 18 30 19 31 29 32 20 33 22 34 21 35
REMARK SMILES IDX 23 36 24 37 28 38 25 39 27 40 26 41
REMARK H PARENT 8 11 17 29
ROOT
ATOM      1  C   UNL     1      36.054  -1.496  49.498  1.00  0.00     0.042 A 
ATOM      2  C   UNL     1      35.411  -2.723  49.276  1.00  0.00     0.014 A 
ATOM      3  C   UNL     1      34.025  -2.848  49.388  1.00  0.00     0.006 A 
ATOM      4  C   UNL     1      33.239  -1.786  49.805  1.00  0.00    -0.027 A 
ATOM      5  C   UNL     1      31.730  -1.939  49.930  1.00  0.00     0.046 C 
ATOM      6  C   UNL     1      33.884  -0.592  50.126  1.00  0.00     0.045 A 
ATOM      7  C   UNL     1      35.273  -0.480  49.983  1.00  0.00     0.040 A 
ENDROOT
BRANCH   1   8
ATOM      8  C   UNL     1      37.517  -1.304  49.525  1.00  0.00     0.255 C 
ATOM      9  O   UNL     1      37.912  -0.433  50.262  1.00  0.00    -0.269 OA
ATOM     10  N   UNL     1      38.251  -2.261  48.938  1.00  0.00    -0.322 N 
ATOM     11  H   UNL     1      37.738  -3.016  48.460  1.00  0.00     0.170 HD
BRANCH  10  12
ATOM     12  C   UNL     1      39.638  -2.328  48.917  1.00  0.00     0.044 A 
ATOM     13  C   UNL     1      40.382  -2.395  50.121  1.00  0.00     0.052 A 
ATOM     14  C   UNL     1      40.344  -2.209  47.700  1.00  0.00     0.039 A 
ATOM     15  C   UNL     1      41.777  -2.472  50.109  1.00  0.00     0.049 A 
ATOM     16  C   UNL     1      41.764  -2.311  47.688  1.00  0.00     0.060 A 
ATOM     17  C   UNL     1      42.457  -2.406  48.897  1.00  0.00     0.039 A 
BRANCH  15  18
ATOM     18  N   UNL     1      42.520  -2.581  51.295  1.00  0.00    -0.306 N 
ATOM     19  C   UNL     1      42.451  -3.559  52.285  1.00  0.00     0.116 A 
ATOM     20  C   UNL     1      43.405  -1.696  51.770  1.00  0.00     0.204 A 
ATOM     21  C   UNL     1      43.292  -3.209  53.283  1.00  0.00     0.056 A 
ATOM     22  N   UNL     1      43.903  -2.058  52.926  1.00  0.00    -0.242 NA
ATOM     23  C   UNL     1      43.578  -3.959  54.562  1.00  0.00     0.068 C 
ENDBRANCH  15  18
BRANCH  16  24
ATOM     24  C   UNL     1      42.482  -2.243  46.379  1.00  0.00     0.416 C 
ATOM     25  F   UNL     1      42.822  -3.436  45.853  1.00  0.00    -0.166 F 
ATOM     26  F   UNL     1      41.700  -1.737  45.432  1.00  0.00    -0.166 F 
ATOM     27  F   UNL     1      43.661  -1.594  46.474  1.00  0.00    -0.166 F 
ENDBRANCH  16  24
ENDBRANCH  10  12
ENDBRANCH   1   8
BRANCH   6  28
ATOM     28  N   UNL     1      33.100   0.538  50.391  1.00  0.00    -0.324 N 
ATOM     29  H   UNL     1      32.649   1.049  49.620  1.00  0.00     0.170 HD
BRANCH  28  30
ATOM     30  C   UNL     1      32.937   0.967  51.710  1.00  0.00     0.227 A 
ATOM     31  N   UNL     1      33.685   1.811  52.410  1.00  0.00    -0.221 NA
ATOM     32  N   UNL     1      31.879   0.296  52.233  1.00  0.00    -0.213 NA
ATOM     33  C   UNL     1      33.325   2.019  53.691  1.00  0.00     0.117 A 
ATOM     34  C   UNL     1      31.580   0.512  53.519  1.00  0.00     0.077 A 
ATOM     35  C   UNL     1      32.299   1.375  54.268  1.00  0.00     0.049 A 
BRANCH  34  36
ATOM     36  C   UNL     1      30.392  -0.219  54.034  1.00  0.00     0.019 A 
ATOM     37  C   UNL     1      29.142   0.407  54.164  1.00  0.00     0.013 A 
ATOM     38  C   UNL     1      30.497  -1.569  54.423  1.00  0.00     0.121 A 
ATOM     39  C   UNL     1      28.074  -0.319  54.674  1.00  0.00     0.021 A 
ATOM     40  N   UNL     1      29.473  -2.271  54.924  1.00  0.00    -0.264 NA
ATOM     41  C   UNL     1      28.282  -1.656  55.013  1.00  0.00     0.111 A 
ENDBRANCH  34  36
ENDBRANCH  28  30
ENDBRANCH   6  28
TORSDOF 7
ENDMDL
MODEL 20
REMARK VINA RESULT:    -9.716      4.139     10.472
REMARK INTER + INTRA:         -13.668
REMARK INTER:                 -11.804
REMARK INTRA:                  -1.863
REMARK CONF_INDEPENDENT:        2.088
REMARK UNBOUND:                -1.863
REMARK SMILES Cc1cn(-c2cc(NC(=O)c3ccc(C)c(Nc4nccc(-c5cccnc5)n4)c3)cc(C(F)(F)F)c2)cn1
REMARK SMILES IDX 11 1 12 2 13 3 14 4 15 5 16 6 30 7 9 8 10 9 8 10 7 12 6 13
REMARK SMILES IDX 31 14 5 15 32 16 37 17 4 18 3 19 38 20 2 21 39 22 1 23 33 24
REMARK SMILES IDX 34 25 35 26 36 27 17 28 18 30 19 31 29 32 20 33 22 34 21 35
REMARK SMILES IDX 23 36 24 37 28 38 25 39 27 40 26 41
REMARK H PARENT 8 11 17 29
ROOT
ATOM      1  C   UNL     1      21.669   6.829  54.143  1.00  0.00     0.042 A 
ATOM      2  C   UNL     1      21.153   8.008  53.585  1.00  0.00     0.014 A 
ATOM      3  C   UNL     1      20.448   8.931  54.360  1.00  0.00     0.006 A 
ATOM      4  C   UNL     1      20.159   8.679  55.692  1.00  0.00    -0.027 A 
ATOM      5  C   UNL     1      19.383   9.691  56.522  1.00  0.00     0.046 C 
ATOM      6  C   UNL     1      20.579   7.462  56.225  1.00  0.00     0.045 A 
ATOM      7  C   UNL     1      21.307   6.560  55.437  1.00  0.00     0.040 A 
ENDROOT
BRANCH   1   8
ATOM      8  C   UNL     1      22.311   5.744  53.376  1.00  0.00     0.255 C 
ATOM      9  O   UNL     1      21.654   4.740  53.246  1.00  0.00    -0.269 OA
ATOM     10  N   UNL     1      23.425   6.074  52.703  1.00  0.00    -0.322 N 
ATOM     11  H   UNL     1      23.779   7.033  52.827  1.00  0.00     0.170 HD
BRANCH  10  12
ATOM     12  C   UNL     1      24.143   5.241  51.856  1.00  0.00     0.044 A 
ATOM     13  C   UNL     1      25.253   4.500  52.333  1.00  0.00     0.052 A 
ATOM     14  C   UNL     1      23.859   5.206  50.473  1.00  0.00     0.039 A 
ATOM     15  C   UNL     1      25.976   3.651  51.490  1.00  0.00     0.049 A 
ATOM     16  C   UNL     1      24.583   4.324  49.620  1.00  0.00     0.060 A 
ATOM     17  C   UNL     1      25.650   3.588  50.139  1.00  0.00     0.039 A 
BRANCH  15  18
ATOM     18  N   UNL     1      27.049   2.881  51.962  1.00  0.00    -0.306 N 
ATOM     19  C   UNL     1      27.313   2.450  53.261  1.00  0.00     0.116 A 
ATOM     20  C   UNL     1      28.112   2.471  51.259  1.00  0.00     0.204 A 
ATOM     21  C   UNL     1      28.503   1.810  53.260  1.00  0.00     0.056 A 
ATOM     22  N   UNL     1      28.971   1.806  51.992  1.00  0.00    -0.242 NA
ATOM     23  C   UNL     1      29.205   1.152  54.423  1.00  0.00     0.068 C 
ENDBRANCH  15  18
BRANCH  16  24
ATOM     24  C   UNL     1      24.221   4.262  48.172  1.00  0.00     0.416 C 
ATOM     25  F   UNL     1      22.908   4.410  47.906  1.00  0.00    -0.166 F 
ATOM     26  F   UNL     1      24.752   5.280  47.504  1.00  0.00    -0.166 F 
ATOM     27  F   UNL     1      24.521   3.069  47.618  1.00  0.00    -0.166 F 
ENDBRANCH  16  24
ENDBRANCH  10  12
ENDBRANCH   1   8
BRANCH   6  28
ATOM     28  N   UNL     1      20.443   7.255  57.603  1.00  0.00    -0.324 N 
ATOM     29  H   UNL     1      19.543   6.942  57.995  1.00  0.00     0.170 HD
BRANCH  28  30
ATOM     30  C   UNL     1      21.536   7.477  58.443  1.00  0.00     0.227 A 
ATOM     31  N   UNL     1      21.550   7.934  59.689  1.00  0.00    -0.221 NA
ATOM     32  N   UNL     1      22.662   7.213  57.731  1.00  0.00    -0.213 NA
ATOM     33  C   UNL     1      22.759   8.097  60.260  1.00  0.00     0.117 A 
ATOM     34  C   UNL     1      23.840   7.421  58.331  1.00  0.00     0.077 A 
ATOM     35  C   UNL     1      23.906   7.868  59.603  1.00  0.00     0.049 A 
BRANCH  34  36
ATOM     36  C   UNL     1      25.041   7.084  57.522  1.00  0.00     0.019 A 
ATOM     37  C   UNL     1      24.957   6.862  56.138  1.00  0.00     0.013 A 
ATOM     38  C   UNL     1      26.304   6.963  58.133  1.00  0.00     0.121 A 
ATOM     39  C   UNL     1      26.108   6.526  55.437  1.00  0.00     0.021 A 
ATOM     40  N   UNL     1      27.416   6.631  57.465  1.00  0.00    -0.264 NA
ATOM     41  C   UNL     1      27.311   6.450  56.138  1.00  0.00     0.111 A 
ENDBRANCH  34  36
ENDBRANCH  28  30
ENDBRANCH   6  28
TORSDOF 7
ENDMDL
