MODEL 1
REMARK VINA RESULT:   -14.416      0.000      0.000
REMARK INTER + INTRA:         -17.673
REMARK INTER:                 -16.504
REMARK INTRA:                  -1.169
REMARK CONF_INDEPENDENT:        2.088
REMARK UNBOUND:                -1.169
REMARK SMILES Cc1cn(-c2cc(NC(=O)c3ccc(C)c(Nc4nccc(-c5cccnc5)n4)c3)cc(C(F)(F)F)c2)cn1
REMARK SMILES IDX 11 1 12 2 13 3 14 4 15 5 16 6 30 7 9 8 10 9 8 10 7 12 6 13
REMARK SMILES IDX 31 14 5 15 32 16 37 17 4 18 3 19 38 20 2 21 39 22 1 23 33 24
REMARK SMILES IDX 34 25 35 26 36 27 17 28 18 30 19 31 29 32 20 33 22 34 21 35
REMARK SMILES IDX 23 36 24 37 28 38 25 39 27 40 26 41
REMARK H PARENT 8 11 17 29
ROOT
ATOM      1  C   UNL     1      27.959   1.716  53.073  1.00  0.00     0.042 A 
ATOM      2  C   UNL     1      27.664   1.174  54.333  1.00  0.00     0.014 A 
ATOM      3  C   UNL     1      28.379   0.088  54.842  1.00  0.00     0.006 A 
ATOM      4  C   UNL     1      29.351  -0.549  54.089  1.00  0.00    -0.027 A 
ATOM      5  C   UNL     1      30.117  -1.736  54.654  1.00  0.00     0.046 C 
ATOM      6  C   UNL     1      29.577  -0.080  52.795  1.00  0.00     0.045 A 
ATOM      7  C   UNL     1      28.866   1.026  52.312  1.00  0.00     0.040 A 
ENDROOT
BRANCH   1   8
ATOM      8  C   UNL     1      27.175   2.774  52.406  1.00  0.00     0.255 C 
ATOM      9  O   UNL     1      27.481   3.002  51.261  1.00  0.00    -0.269 OA
ATOM     10  N   UNL     1      26.068   3.182  53.044  1.00  0.00    -0.322 N 
ATOM     11  H   UNL     1      25.888   2.776  53.974  1.00  0.00     0.170 HD
BRANCH  10  12
ATOM     12  C   UNL     1      25.143   4.102  52.567  1.00  0.00     0.044 A 
ATOM     13  C   UNL     1      24.219   4.725  53.442  1.00  0.00     0.052 A 
ATOM     14  C   UNL     1      25.021   4.344  51.181  1.00  0.00     0.039 A 
ATOM     15  C   UNL     1      23.291   5.659  52.973  1.00  0.00     0.049 A 
ATOM     16  C   UNL     1      24.090   5.313  50.708  1.00  0.00     0.060 A 
ATOM     17  C   UNL     1      23.219   5.927  51.610  1.00  0.00     0.039 A 
BRANCH  15  18
ATOM     18  N   UNL     1      22.401   6.314  53.838  1.00  0.00    -0.306 N 
ATOM     19  C   UNL     1      22.146   6.064  55.185  1.00  0.00     0.116 A 
ATOM     20  C   UNL     1      21.530   7.276  53.512  1.00  0.00     0.204 A 
ATOM     21  C   UNL     1      21.150   6.884  55.585  1.00  0.00     0.056 A 
ATOM     22  N   UNL     1      20.801   7.657  54.532  1.00  0.00    -0.242 NA
ATOM     23  C   UNL     1      20.537   7.000  56.959  1.00  0.00     0.068 C 
ENDBRANCH  15  18
BRANCH  16  24
ATOM     24  C   UNL     1      24.025   5.594  49.242  1.00  0.00     0.416 C 
ATOM     25  F   UNL     1      24.819   6.597  48.818  1.00  0.00    -0.166 F 
ATOM     26  F   UNL     1      24.483   4.565  48.538  1.00  0.00    -0.166 F 
ATOM     27  F   UNL     1      22.794   5.981  48.848  1.00  0.00    -0.166 F 
ENDBRANCH  16  24
ENDBRANCH  10  12
ENDBRANCH   1   8
BRANCH   6  28
ATOM     28  N   UNL     1      30.661  -0.601  52.077  1.00  0.00    -0.324 N 
ATOM     29  H   UNL     1      30.529  -1.403  51.446  1.00  0.00     0.170 HD
BRANCH  28  30
ATOM     30  C   UNL     1      31.923  -0.022  52.225  1.00  0.00     0.227 A 
ATOM     31  N   UNL     1      32.306   0.940  53.055  1.00  0.00    -0.221 NA
ATOM     32  N   UNL     1      32.738  -0.566  51.285  1.00  0.00    -0.213 NA
ATOM     33  C   UNL     1      33.586   1.348  52.960  1.00  0.00     0.117 A 
ATOM     34  C   UNL     1      33.992  -0.106  51.207  1.00  0.00     0.077 A 
ATOM     35  C   UNL     1      34.435   0.859  52.042  1.00  0.00     0.049 A 
BRANCH  34  36
ATOM     36  C   UNL     1      34.854  -0.758  50.186  1.00  0.00     0.019 A 
ATOM     37  C   UNL     1      36.182  -0.353  49.978  1.00  0.00     0.013 A 
ATOM     38  C   UNL     1      34.348  -1.799  49.383  1.00  0.00     0.121 A 
ATOM     39  C   UNL     1      36.932  -0.982  48.992  1.00  0.00     0.021 A 
ATOM     40  N   UNL     1      35.064  -2.403  48.426  1.00  0.00    -0.264 NA
ATOM     41  C   UNL     1      36.339  -2.014  48.266  1.00  0.00     0.111 A 
ENDBRANCH  34  36
ENDBRANCH  28  30
ENDBRANCH   6  28
TORSDOF 7
ENDMDL
MODEL 2
REMARK VINA RESULT:   -13.268      2.299      3.594
REMARK INTER + INTRA:         -16.600
REMARK INTER:                 -15.356
REMARK INTRA:                  -1.244
REMARK CONF_INDEPENDENT:        2.088
REMARK UNBOUND:                -1.244
REMARK SMILES Cc1cn(-c2cc(NC(=O)c3ccc(C)c(Nc4nccc(-c5cccnc5)n4)c3)cc(C(F)(F)F)c2)cn1
REMARK SMILES IDX 11 1 12 2 13 3 14 4 15 5 16 6 30 7 9 8 10 9 8 10 7 12 6 13
REMARK SMILES IDX 31 14 5 15 32 16 37 17 4 18 3 19 38 20 2 21 39 22 1 23 33 24
REMARK SMILES IDX 34 25 35 26 36 27 17 28 18 30 19 31 29 32 20 33 22 34 21 35
REMARK SMILES IDX 23 36 24 37 28 38 25 39 27 40 26 41
REMARK H PARENT 8 11 17 29
ROOT
ATOM      1  C   UNL     1      28.394   1.598  53.500  1.00  0.00     0.042 A 
ATOM      2  C   UNL     1      28.091   0.945  54.705  1.00  0.00     0.014 A 
ATOM      3  C   UNL     1      28.759  -0.218  55.089  1.00  0.00     0.006 A 
ATOM      4  C   UNL     1      29.689  -0.821  54.257  1.00  0.00    -0.027 A 
ATOM      5  C   UNL     1      30.404  -2.094  54.686  1.00  0.00     0.046 C 
ATOM      6  C   UNL     1      29.919  -0.234  53.014  1.00  0.00     0.045 A 
ATOM      7  C   UNL     1      29.257   0.947  52.657  1.00  0.00     0.040 A 
ENDROOT
BRANCH   1   8
ATOM      8  C   UNL     1      27.653   2.755  52.958  1.00  0.00     0.255 C 
ATOM      9  O   UNL     1      28.097   3.222  51.938  1.00  0.00    -0.269 OA
ATOM     10  N   UNL     1      26.452   2.996  53.503  1.00  0.00    -0.322 N 
ATOM     11  H   UNL     1      26.170   2.402  54.296  1.00  0.00     0.170 HD
BRANCH  10  12
ATOM     12  C   UNL     1      25.553   3.974  53.096  1.00  0.00     0.044 A 
ATOM     13  C   UNL     1      25.174   4.093  51.736  1.00  0.00     0.052 A 
ATOM     14  C   UNL     1      25.089   4.947  54.008  1.00  0.00     0.039 A 
ATOM     15  C   UNL     1      24.263   5.067  51.319  1.00  0.00     0.049 A 
ATOM     16  C   UNL     1      24.144   5.925  53.585  1.00  0.00     0.060 A 
ATOM     17  C   UNL     1      23.774   5.988  52.240  1.00  0.00     0.039 A 
BRANCH  15  18
ATOM     18  N   UNL     1      23.849   5.166  49.982  1.00  0.00    -0.306 N 
ATOM     19  C   UNL     1      22.644   5.645  49.471  1.00  0.00     0.116 A 
ATOM     20  C   UNL     1      24.510   4.725  48.904  1.00  0.00     0.204 A 
ATOM     21  C   UNL     1      22.654   5.469  48.131  1.00  0.00     0.056 A 
ATOM     22  N   UNL     1      23.843   4.923  47.793  1.00  0.00    -0.242 NA
ATOM     23  C   UNL     1      21.583   5.847  47.137  1.00  0.00     0.068 C 
ENDBRANCH  15  18
BRANCH  16  24
ATOM     24  C   UNL     1      23.624   6.906  54.586  1.00  0.00     0.416 C 
ATOM     25  F   UNL     1      23.277   6.376  55.776  1.00  0.00    -0.166 F 
ATOM     26  F   UNL     1      24.566   7.775  54.936  1.00  0.00    -0.166 F 
ATOM     27  F   UNL     1      22.493   7.511  54.170  1.00  0.00    -0.166 F 
ENDBRANCH  16  24
ENDBRANCH  10  12
ENDBRANCH   1   8
BRANCH   6  28
ATOM     28  N   UNL     1      30.967  -0.729  52.227  1.00  0.00    -0.324 N 
ATOM     29  H   UNL     1      30.823  -1.555  51.630  1.00  0.00     0.170 HD
BRANCH  28  30
ATOM     30  C   UNL     1      32.209  -0.092  52.259  1.00  0.00     0.227 A 
ATOM     31  N   UNL     1      32.589   0.957  52.977  1.00  0.00    -0.221 NA
ATOM     32  N   UNL     1      33.003  -0.691  51.334  1.00  0.00    -0.213 NA
ATOM     33  C   UNL     1      33.845   1.402  52.782  1.00  0.00     0.117 A 
ATOM     34  C   UNL     1      34.232  -0.193  51.153  1.00  0.00     0.077 A 
ATOM     35  C   UNL     1      34.670   0.862  51.872  1.00  0.00     0.049 A 
BRANCH  34  36
ATOM     36  C   UNL     1      35.073  -0.905  50.155  1.00  0.00     0.019 A 
ATOM     37  C   UNL     1      36.466  -0.740  50.117  1.00  0.00     0.013 A 
ATOM     38  C   UNL     1      34.484  -1.760  49.203  1.00  0.00     0.121 A 
ATOM     39  C   UNL     1      37.199  -1.411  49.146  1.00  0.00     0.021 A 
ATOM     40  N   UNL     1      35.183  -2.403  48.260  1.00  0.00    -0.264 NA
ATOM     41  C   UNL     1      36.517  -2.248  48.262  1.00  0.00     0.111 A 
ENDBRANCH  34  36
ENDBRANCH  28  30
ENDBRANCH   6  28
TORSDOF 7
ENDMDL
MODEL 3
REMARK VINA RESULT:   -12.218      1.540      3.621
REMARK INTER + INTRA:         -15.872
REMARK INTER:                 -14.306
REMARK INTRA:                  -1.566
REMARK CONF_INDEPENDENT:        2.088
REMARK UNBOUND:                -1.566
REMARK SMILES Cc1cn(-c2cc(NC(=O)c3ccc(C)c(Nc4nccc(-c5cccnc5)n4)c3)cc(C(F)(F)F)c2)cn1
REMARK SMILES IDX 11 1 12 2 13 3 14 4 15 5 16 6 30 7 9 8 10 9 8 10 7 12 6 13
REMARK SMILES IDX 31 14 5 15 32 16 37 17 4 18 3 19 38 20 2 21 39 22 1 23 33 24
REMARK SMILES IDX 34 25 35 26 36 27 17 28 18 30 19 31 29 32 20 33 22 34 21 35
REMARK SMILES IDX 23 36 24 37 28 38 25 39 27 40 26 41
REMARK H PARENT 8 11 17 29
ROOT
ATOM      1  C   UNL     1      27.648   1.583  52.922  1.00  0.00     0.042 A 
ATOM      2  C   UNL     1      27.330   0.965  54.140  1.00  0.00     0.014 A 
ATOM      3  C   UNL     1      28.036  -0.148  54.597  1.00  0.00     0.006 A 
ATOM      4  C   UNL     1      29.025  -0.738  53.825  1.00  0.00    -0.027 A 
ATOM      5  C   UNL     1      29.782  -1.957  54.333  1.00  0.00     0.046 C 
ATOM      6  C   UNL     1      29.275  -0.191  52.568  1.00  0.00     0.045 A 
ATOM      7  C   UNL     1      28.572   0.942  52.139  1.00  0.00     0.040 A 
ENDROOT
BRANCH   1   8
ATOM      8  C   UNL     1      26.876   2.680  52.306  1.00  0.00     0.255 C 
ATOM      9  O   UNL     1      27.125   2.901  51.146  1.00  0.00    -0.269 OA
ATOM     10  N   UNL     1      25.827   3.133  53.009  1.00  0.00    -0.322 N 
ATOM     11  H   UNL     1      25.683   2.730  53.945  1.00  0.00     0.170 HD
BRANCH  10  12
ATOM     12  C   UNL     1      24.918   4.096  52.589  1.00  0.00     0.044 A 
ATOM     13  C   UNL     1      24.045   4.724  53.512  1.00  0.00     0.052 A 
ATOM     14  C   UNL     1      24.759   4.383  51.216  1.00  0.00     0.039 A 
ATOM     15  C   UNL     1      23.134   5.701  53.101  1.00  0.00     0.049 A 
ATOM     16  C   UNL     1      23.846   5.395  50.802  1.00  0.00     0.060 A 
ATOM     17  C   UNL     1      23.026   6.011  51.749  1.00  0.00     0.039 A 
BRANCH  15  18
ATOM     18  N   UNL     1      22.296   6.358  54.014  1.00  0.00    -0.306 N 
ATOM     19  C   UNL     1      22.034   6.044  55.346  1.00  0.00     0.116 A 
ATOM     20  C   UNL     1      21.487   7.393  53.756  1.00  0.00     0.204 A 
ATOM     21  C   UNL     1      21.098   6.903  55.806  1.00  0.00     0.056 A 
ATOM     22  N   UNL     1      20.792   7.759  54.806  1.00  0.00    -0.242 NA
ATOM     23  C   UNL     1      20.504   6.974  57.192  1.00  0.00     0.068 C 
ENDBRANCH  15  18
BRANCH  16  24
ATOM     24  C   UNL     1      23.742   5.721  49.347  1.00  0.00     0.416 C 
ATOM     25  F   UNL     1      22.490   5.708  48.849  1.00  0.00    -0.166 F 
ATOM     26  F   UNL     1      24.120   6.972  49.110  1.00  0.00    -0.166 F 
ATOM     27  F   UNL     1      24.396   4.830  48.573  1.00  0.00    -0.166 F 
ENDBRANCH  16  24
ENDBRANCH  10  12
ENDBRANCH   1   8
BRANCH   6  28
ATOM     28  N   UNL     1      30.375  -0.665  51.841  1.00  0.00    -0.324 N 
ATOM     29  H   UNL     1      30.265  -1.454  51.188  1.00  0.00     0.170 HD
BRANCH  28  30
ATOM     30  C   UNL     1      31.622  -0.060  52.009  1.00  0.00     0.227 A 
ATOM     31  N   UNL     1      32.761  -0.312  51.378  1.00  0.00    -0.221 NA
ATOM     32  N   UNL     1      31.514   0.829  53.030  1.00  0.00    -0.213 NA
ATOM     33  C   UNL     1      33.839   0.395  51.768  1.00  0.00     0.117 A 
ATOM     34  C   UNL     1      32.619   1.484  53.404  1.00  0.00     0.077 A 
ATOM     35  C   UNL     1      33.799   1.275  52.780  1.00  0.00     0.049 A 
BRANCH  34  36
ATOM     36  C   UNL     1      32.442   2.470  54.502  1.00  0.00     0.019 A 
ATOM     37  C   UNL     1      33.353   3.519  54.703  1.00  0.00     0.013 A 
ATOM     38  C   UNL     1      31.350   2.367  55.386  1.00  0.00     0.121 A 
ATOM     39  C   UNL     1      33.150   4.396  55.761  1.00  0.00     0.021 A 
ATOM     40  N   UNL     1      31.153   3.204  56.412  1.00  0.00    -0.264 NA
ATOM     41  C   UNL     1      32.026   4.213  56.566  1.00  0.00     0.111 A 
ENDBRANCH  34  36
ENDBRANCH  28  30
ENDBRANCH   6  28
TORSDOF 7
ENDMDL
MODEL 4
REMARK VINA RESULT:   -11.503      3.706     11.736
REMARK INTER + INTRA:         -14.732
REMARK INTER:                 -13.591
REMARK INTRA:                  -1.141
REMARK CONF_INDEPENDENT:        2.088
REMARK UNBOUND:                -1.141
REMARK SMILES Cc1cn(-c2cc(NC(=O)c3ccc(C)c(Nc4nccc(-c5cccnc5)n4)c3)cc(C(F)(F)F)c2)cn1
REMARK SMILES IDX 11 1 12 2 13 3 14 4 15 5 16 6 30 7 9 8 10 9 8 10 7 12 6 13
REMARK SMILES IDX 31 14 5 15 32 16 37 17 4 18 3 19 38 20 2 21 39 22 1 23 33 24
REMARK SMILES IDX 34 25 35 26 36 27 17 28 18 30 19 31 29 32 20 33 22 34 21 35
REMARK SMILES IDX 23 36 24 37 28 38 25 39 27 40 26 41
REMARK H PARENT 8 11 17 29
ROOT
ATOM      1  C   UNL     1      25.839   3.848  51.841  1.00  0.00     0.042 A 
ATOM      2  C   UNL     1      25.220   4.249  50.647  1.00  0.00     0.014 A 
ATOM      3  C   UNL     1      24.099   5.080  50.653  1.00  0.00     0.006 A 
ATOM      4  C   UNL     1      23.504   5.475  51.841  1.00  0.00    -0.027 A 
ATOM      5  C   UNL     1      22.278   6.377  51.832  1.00  0.00     0.046 C 
ATOM      6  C   UNL     1      24.053   4.996  53.029  1.00  0.00     0.045 A 
ATOM      7  C   UNL     1      25.193   4.182  53.002  1.00  0.00     0.040 A 
ENDROOT
BRANCH   1   8
ATOM      8  C   UNL     1      26.944   2.873  51.932  1.00  0.00     0.255 C 
ATOM      9  O   UNL     1      27.685   2.839  50.980  1.00  0.00    -0.269 OA
ATOM     10  N   UNL     1      27.151   2.325  53.139  1.00  0.00    -0.322 N 
ATOM     11  H   UNL     1      26.487   2.574  53.886  1.00  0.00     0.170 HD
BRANCH  10  12
ATOM     12  C   UNL     1      28.179   1.452  53.473  1.00  0.00     0.044 A 
ATOM     13  C   UNL     1      29.511   1.705  53.060  1.00  0.00     0.052 A 
ATOM     14  C   UNL     1      27.901   0.232  54.128  1.00  0.00     0.039 A 
ATOM     15  C   UNL     1      30.553   0.838  53.399  1.00  0.00     0.049 A 
ATOM     16  C   UNL     1      28.968  -0.638  54.492  1.00  0.00     0.060 A 
ATOM     17  C   UNL     1      30.271  -0.335  54.091  1.00  0.00     0.039 A 
BRANCH  15  18
ATOM     18  N   UNL     1      31.881   1.101  53.031  1.00  0.00    -0.306 N 
ATOM     19  C   UNL     1      32.608   0.597  51.954  1.00  0.00     0.116 A 
ATOM     20  C   UNL     1      32.770   1.838  53.708  1.00  0.00     0.204 A 
ATOM     21  C   UNL     1      33.874   1.059  52.045  1.00  0.00     0.056 A 
ATOM     22  N   UNL     1      33.946   1.860  53.131  1.00  0.00    -0.242 NA
ATOM     23  C   UNL     1      35.026   0.805  51.103  1.00  0.00     0.068 C 
ENDBRANCH  15  18
BRANCH  16  24
ATOM     24  C   UNL     1      28.651  -1.894  55.238  1.00  0.00     0.416 C 
ATOM     25  F   UNL     1      27.624  -2.610  54.738  1.00  0.00    -0.166 F 
ATOM     26  F   UNL     1      29.654  -2.761  55.160  1.00  0.00    -0.166 F 
ATOM     27  F   UNL     1      28.275  -1.653  56.511  1.00  0.00    -0.166 F 
ENDBRANCH  16  24
ENDBRANCH  10  12
ENDBRANCH   1   8
BRANCH   6  28
ATOM     28  N   UNL     1      23.571   5.509  54.240  1.00  0.00    -0.324 N 
ATOM     29  H   UNL     1      22.576   5.413  54.486  1.00  0.00     0.170 HD
BRANCH  28  30
ATOM     30  C   UNL     1      24.452   6.152  55.112  1.00  0.00     0.227 A 
ATOM     31  N   UNL     1      25.767   6.300  55.008  1.00  0.00    -0.221 NA
ATOM     32  N   UNL     1      23.737   6.566  56.189  1.00  0.00    -0.213 NA
ATOM     33  C   UNL     1      26.388   6.931  56.023  1.00  0.00     0.117 A 
ATOM     34  C   UNL     1      24.402   7.160  57.187  1.00  0.00     0.077 A 
ATOM     35  C   UNL     1      25.738   7.349  57.120  1.00  0.00     0.049 A 
BRANCH  34  36
ATOM     36  C   UNL     1      23.570   7.626  58.327  1.00  0.00     0.019 A 
ATOM     37  C   UNL     1      24.013   8.634  59.198  1.00  0.00     0.013 A 
ATOM     38  C   UNL     1      22.307   7.051  58.572  1.00  0.00     0.121 A 
ATOM     39  C   UNL     1      23.203   9.011  60.261  1.00  0.00     0.021 A 
ATOM     40  N   UNL     1      21.525   7.405  59.600  1.00  0.00    -0.264 NA
ATOM     41  C   UNL     1      21.963   8.389  60.403  1.00  0.00     0.111 A 
ENDBRANCH  34  36
ENDBRANCH  28  30
ENDBRANCH   6  28
TORSDOF 7
ENDMDL
MODEL 5
REMARK VINA RESULT:   -11.409      2.668      3.995
REMARK INTER + INTRA:         -14.739
REMARK INTER:                 -13.497
REMARK INTRA:                  -1.242
REMARK CONF_INDEPENDENT:        2.088
REMARK UNBOUND:                -1.242
REMARK SMILES Cc1cn(-c2cc(NC(=O)c3ccc(C)c(Nc4nccc(-c5cccnc5)n4)c3)cc(C(F)(F)F)c2)cn1
REMARK SMILES IDX 11 1 12 2 13 3 14 4 15 5 16 6 30 7 9 8 10 9 8 10 7 12 6 13
REMARK SMILES IDX 31 14 5 15 32 16 37 17 4 18 3 19 38 20 2 21 39 22 1 23 33 24
REMARK SMILES IDX 34 25 35 26 36 27 17 28 18 30 19 31 29 32 20 33 22 34 21 35
REMARK SMILES IDX 23 36 24 37 28 38 25 39 27 40 26 41
REMARK H PARENT 8 11 17 29
ROOT
ATOM      1  C   UNL     1      28.186   1.823  52.781  1.00  0.00     0.042 A 
ATOM      2  C   UNL     1      27.942   1.742  54.161  1.00  0.00     0.014 A 
ATOM      3  C   UNL     1      28.718   0.931  54.990  1.00  0.00     0.006 A 
ATOM      4  C   UNL     1      29.705   0.109  54.471  1.00  0.00    -0.027 A 
ATOM      5  C   UNL     1      30.539  -0.777  55.386  1.00  0.00     0.046 C 
ATOM      6  C   UNL     1      29.883   0.107  53.088  1.00  0.00     0.045 A 
ATOM      7  C   UNL     1      29.111   0.947  52.276  1.00  0.00     0.040 A 
ENDROOT
BRANCH   1   8
ATOM      8  C   UNL     1      27.340   2.553  51.817  1.00  0.00     0.255 C 
ATOM      9  O   UNL     1      27.895   2.909  50.806  1.00  0.00    -0.269 OA
ATOM     10  N   UNL     1      26.018   2.519  52.045  1.00  0.00    -0.322 N 
ATOM     11  H   UNL     1      25.704   2.047  52.905  1.00  0.00     0.170 HD
BRANCH  10  12
ATOM     12  C   UNL     1      25.035   3.062  51.228  1.00  0.00     0.044 A 
ATOM     13  C   UNL     1      24.305   2.247  50.328  1.00  0.00     0.052 A 
ATOM     14  C   UNL     1      24.824   4.458  51.189  1.00  0.00     0.039 A 
ATOM     15  C   UNL     1      23.307   2.782  49.509  1.00  0.00     0.049 A 
ATOM     16  C   UNL     1      23.792   4.999  50.370  1.00  0.00     0.060 A 
ATOM     17  C   UNL     1      23.075   4.154  49.519  1.00  0.00     0.039 A 
BRANCH  15  18
ATOM     18  N   UNL     1      22.550   1.977  48.645  1.00  0.00    -0.306 N 
ATOM     19  C   UNL     1      22.361   0.596  48.676  1.00  0.00     0.116 A 
ATOM     20  C   UNL     1      21.915   2.369  47.535  1.00  0.00     0.204 A 
ATOM     21  C   UNL     1      21.627   0.246  47.597  1.00  0.00     0.056 A 
ATOM     22  N   UNL     1      21.330   1.374  46.913  1.00  0.00    -0.242 NA
ATOM     23  C   UNL     1      21.148  -1.131  47.206  1.00  0.00     0.068 C 
ENDBRANCH  15  18
BRANCH  16  24
ATOM     24  C   UNL     1      23.551   6.473  50.394  1.00  0.00     0.416 C 
ATOM     25  F   UNL     1      23.593   7.038  51.617  1.00  0.00    -0.166 F 
ATOM     26  F   UNL     1      24.516   7.125  49.756  1.00  0.00    -0.166 F 
ATOM     27  F   UNL     1      22.322   6.799  49.941  1.00  0.00    -0.166 F 
ENDBRANCH  16  24
ENDBRANCH  10  12
ENDBRANCH   1   8
BRANCH   6  28
ATOM     28  N   UNL     1      30.978  -0.589  52.558  1.00  0.00    -0.324 N 
ATOM     29  H   UNL     1      30.866  -1.556  52.224  1.00  0.00     0.170 HD
BRANCH  28  30
ATOM     30  C   UNL     1      32.222   0.041  52.485  1.00  0.00     0.227 A 
ATOM     31  N   UNL     1      32.643   1.127  53.121  1.00  0.00    -0.221 NA
ATOM     32  N   UNL     1      32.961  -0.614  51.554  1.00  0.00    -0.213 NA
ATOM     33  C   UNL     1      33.888   1.552  52.833  1.00  0.00     0.117 A 
ATOM     34  C   UNL     1      34.180  -0.135  51.278  1.00  0.00     0.077 A 
ATOM     35  C   UNL     1      34.661   0.957  51.912  1.00  0.00     0.049 A 
BRANCH  34  36
ATOM     36  C   UNL     1      34.962  -0.907  50.278  1.00  0.00     0.019 A 
ATOM     37  C   UNL     1      36.301  -0.595  49.991  1.00  0.00     0.013 A 
ATOM     38  C   UNL     1      34.369  -1.973  49.574  1.00  0.00     0.121 A 
ATOM     39  C   UNL     1      36.975  -1.335  49.029  1.00  0.00     0.021 A 
ATOM     40  N   UNL     1      35.012  -2.685  48.639  1.00  0.00    -0.264 NA
ATOM     41  C   UNL     1      36.299  -2.382  48.404  1.00  0.00     0.111 A 
ENDBRANCH  34  36
ENDBRANCH  28  30
ENDBRANCH   6  28
TORSDOF 7
ENDMDL
MODEL 6
REMARK VINA RESULT:   -11.243      4.097     11.367
REMARK INTER + INTRA:         -14.451
REMARK INTER:                 -13.331
REMARK INTRA:                  -1.120
REMARK CONF_INDEPENDENT:        2.088
REMARK UNBOUND:                -1.120
REMARK SMILES Cc1cn(-c2cc(NC(=O)c3ccc(C)c(Nc4nccc(-c5cccnc5)n4)c3)cc(C(F)(F)F)c2)cn1
REMARK SMILES IDX 11 1 12 2 13 3 14 4 15 5 16 6 30 7 9 8 10 9 8 10 7 12 6 13
REMARK SMILES IDX 31 14 5 15 32 16 37 17 4 18 3 19 38 20 2 21 39 22 1 23 33 24
REMARK SMILES IDX 34 25 35 26 36 27 17 28 18 30 19 31 29 32 20 33 22 34 21 35
REMARK SMILES IDX 23 36 24 37 28 38 25 39 27 40 26 41
REMARK H PARENT 8 11 17 29
ROOT
ATOM      1  C   UNL     1      25.658   3.904  52.168  1.00  0.00     0.042 A 
ATOM      2  C   UNL     1      24.528   3.805  51.343  1.00  0.00     0.014 A 
ATOM      3  C   UNL     1      23.467   4.705  51.452  1.00  0.00     0.006 A 
ATOM      4  C   UNL     1      23.450   5.680  52.436  1.00  0.00    -0.027 A 
ATOM      5  C   UNL     1      22.283   6.651  52.548  1.00  0.00     0.046 C 
ATOM      6  C   UNL     1      24.523   5.718  53.326  1.00  0.00     0.045 A 
ATOM      7  C   UNL     1      25.589   4.822  53.184  1.00  0.00     0.040 A 
ENDROOT
BRANCH   1   8
ATOM      8  C   UNL     1      26.762   2.925  52.207  1.00  0.00     0.255 C 
ATOM      9  O   UNL     1      27.429   2.856  51.204  1.00  0.00    -0.269 OA
ATOM     10  N   UNL     1      27.056   2.412  53.412  1.00  0.00    -0.322 N 
ATOM     11  H   UNL     1      26.451   2.689  54.198  1.00  0.00     0.170 HD
BRANCH  10  12
ATOM     12  C   UNL     1      28.102   1.543  53.695  1.00  0.00     0.044 A 
ATOM     13  C   UNL     1      29.423   1.834  53.274  1.00  0.00     0.052 A 
ATOM     14  C   UNL     1      27.852   0.294  54.304  1.00  0.00     0.039 A 
ATOM     15  C   UNL     1      30.484   0.971  53.564  1.00  0.00     0.049 A 
ATOM     16  C   UNL     1      28.937  -0.574  54.617  1.00  0.00     0.060 A 
ATOM     17  C   UNL     1      30.230  -0.234  54.210  1.00  0.00     0.039 A 
BRANCH  15  18
ATOM     18  N   UNL     1      31.802   1.270  53.188  1.00  0.00    -0.306 N 
ATOM     19  C   UNL     1      32.560   0.733  52.149  1.00  0.00     0.116 A 
ATOM     20  C   UNL     1      32.651   2.086  53.824  1.00  0.00     0.204 A 
ATOM     21  C   UNL     1      33.803   1.256  52.219  1.00  0.00     0.056 A 
ATOM     22  N   UNL     1      33.831   2.125  53.254  1.00  0.00    -0.242 NA
ATOM     23  C   UNL     1      34.973   0.997  51.301  1.00  0.00     0.068 C 
ENDBRANCH  15  18
BRANCH  16  24
ATOM     24  C   UNL     1      28.651  -1.864  55.316  1.00  0.00     0.416 C 
ATOM     25  F   UNL     1      29.716  -2.673  55.476  1.00  0.00    -0.166 F 
ATOM     26  F   UNL     1      28.275  -1.653  56.571  1.00  0.00    -0.166 F 
ATOM     27  F   UNL     1      27.773  -2.631  54.636  1.00  0.00    -0.166 F 
ENDBRANCH  16  24
ENDBRANCH  10  12
ENDBRANCH   1   8
BRANCH   6  28
ATOM     28  N   UNL     1      24.608   6.791  54.222  1.00  0.00    -0.324 N 
ATOM     29  H   UNL     1      25.219   7.593  54.015  1.00  0.00     0.170 HD
BRANCH  28  30
ATOM     30  C   UNL     1      23.856   6.765  55.399  1.00  0.00     0.227 A 
ATOM     31  N   UNL     1      22.538   6.780  55.545  1.00  0.00    -0.221 NA
ATOM     32  N   UNL     1      24.724   6.800  56.443  1.00  0.00    -0.213 NA
ATOM     33  C   UNL     1      22.068   6.792  56.807  1.00  0.00     0.117 A 
ATOM     34  C   UNL     1      24.210   6.844  57.677  1.00  0.00     0.077 A 
ATOM     35  C   UNL     1      22.875   6.843  57.878  1.00  0.00     0.049 A 
BRANCH  34  36
ATOM     36  C   UNL     1      25.201   6.845  58.785  1.00  0.00     0.019 A 
ATOM     37  C   UNL     1      24.823   7.121  60.109  1.00  0.00     0.013 A 
ATOM     38  C   UNL     1      26.561   6.583  58.530  1.00  0.00     0.121 A 
ATOM     39  C   UNL     1      25.796   7.134  61.100  1.00  0.00     0.021 A 
ATOM     40  N   UNL     1      27.505   6.601  59.479  1.00  0.00    -0.264 NA
ATOM     41  C   UNL     1      27.112   6.843  60.741  1.00  0.00     0.111 A 
ENDBRANCH  34  36
ENDBRANCH  28  30
ENDBRANCH   6  28
TORSDOF 7
ENDMDL
MODEL 7
REMARK VINA RESULT:   -10.982      3.668     12.093
REMARK INTER + INTRA:         -14.243
REMARK INTER:                 -13.070
REMARK INTRA:                  -1.173
REMARK CONF_INDEPENDENT:        2.088
REMARK UNBOUND:                -1.173
REMARK SMILES Cc1cn(-c2cc(NC(=O)c3ccc(C)c(Nc4nccc(-c5cccnc5)n4)c3)cc(C(F)(F)F)c2)cn1
REMARK SMILES IDX 11 1 12 2 13 3 14 4 15 5 16 6 30 7 9 8 10 9 8 10 7 12 6 13
REMARK SMILES IDX 31 14 5 15 32 16 37 17 4 18 3 19 38 20 2 21 39 22 1 23 33 24
REMARK SMILES IDX 34 25 35 26 36 27 17 28 18 30 19 31 29 32 20 33 22 34 21 35
REMARK SMILES IDX 23 36 24 37 28 38 25 39 27 40 26 41
REMARK H PARENT 8 11 17 29
ROOT
ATOM      1  C   UNL     1      26.086   3.421  51.621  1.00  0.00     0.042 A 
ATOM      2  C   UNL     1      25.486   3.850  50.427  1.00  0.00     0.014 A 
ATOM      3  C   UNL     1      24.263   4.522  50.429  1.00  0.00     0.006 A 
ATOM      4  C   UNL     1      23.553   4.718  51.602  1.00  0.00    -0.027 A 
ATOM      5  C   UNL     1      22.216   5.446  51.588  1.00  0.00     0.046 C 
ATOM      6  C   UNL     1      24.094   4.202  52.779  1.00  0.00     0.045 A 
ATOM      7  C   UNL     1      25.334   3.553  52.760  1.00  0.00     0.040 A 
ENDROOT
BRANCH   1   8
ATOM      8  C   UNL     1      27.307   2.596  51.702  1.00  0.00     0.255 C 
ATOM      9  O   UNL     1      28.159   2.850  50.886  1.00  0.00    -0.269 OA
ATOM     10  N   UNL     1      27.442   1.846  52.806  1.00  0.00    -0.322 N 
ATOM     11  H   UNL     1      26.659   1.852  53.474  1.00  0.00     0.170 HD
BRANCH  10  12
ATOM     12  C   UNL     1      28.542   1.062  53.130  1.00  0.00     0.044 A 
ATOM     13  C   UNL     1      29.830   1.371  52.626  1.00  0.00     0.052 A 
ATOM     14  C   UNL     1      28.381  -0.130  53.871  1.00  0.00     0.039 A 
ATOM     15  C   UNL     1      30.944   0.593  52.954  1.00  0.00     0.049 A 
ATOM     16  C   UNL     1      29.521  -0.908  54.223  1.00  0.00     0.060 A 
ATOM     17  C   UNL     1      30.777  -0.550  53.728  1.00  0.00     0.039 A 
BRANCH  15  18
ATOM     18  N   UNL     1      32.230   0.915  52.494  1.00  0.00    -0.306 N 
ATOM     19  C   UNL     1      32.874   0.497  51.331  1.00  0.00     0.116 A 
ATOM     20  C   UNL     1      33.155   1.635  53.140  1.00  0.00     0.204 A 
ATOM     21  C   UNL     1      34.132   0.988  51.345  1.00  0.00     0.056 A 
ATOM     22  N   UNL     1      34.278   1.725  52.469  1.00  0.00    -0.242 NA
ATOM     23  C   UNL     1      35.206   0.824  50.297  1.00  0.00     0.068 C 
ENDBRANCH  15  18
BRANCH  16  24
ATOM     24  C   UNL     1      29.329  -2.132  55.058  1.00  0.00     0.416 C 
ATOM     25  F   UNL     1      28.708  -3.154  54.437  1.00  0.00    -0.166 F 
ATOM     26  F   UNL     1      30.496  -2.675  55.384  1.00  0.00    -0.166 F 
ATOM     27  F   UNL     1      28.549  -1.900  56.135  1.00  0.00    -0.166 F 
ENDBRANCH  16  24
ENDBRANCH  10  12
ENDBRANCH   1   8
BRANCH   6  28
ATOM     28  N   UNL     1      23.478   4.528  53.994  1.00  0.00    -0.324 N 
ATOM     29  H   UNL     1      22.899   3.833  54.485  1.00  0.00     0.170 HD
BRANCH  28  30
ATOM     30  C   UNL     1      23.656   5.803  54.534  1.00  0.00     0.227 A 
ATOM     31  N   UNL     1      24.639   6.250  55.306  1.00  0.00    -0.221 NA
ATOM     32  N   UNL     1      22.572   6.548  54.199  1.00  0.00    -0.213 NA
ATOM     33  C   UNL     1      24.544   7.525  55.729  1.00  0.00     0.117 A 
ATOM     34  C   UNL     1      22.506   7.799  54.670  1.00  0.00     0.077 A 
ATOM     35  C   UNL     1      23.490   8.306  55.444  1.00  0.00     0.049 A 
BRANCH  34  36
ATOM     36  C   UNL     1      21.318   8.584  54.246  1.00  0.00     0.019 A 
ATOM     37  C   UNL     1      21.421   9.632  53.317  1.00  0.00     0.013 A 
ATOM     38  C   UNL     1      20.046   8.302  54.783  1.00  0.00     0.121 A 
ATOM     39  C   UNL     1      20.280  10.347  52.977  1.00  0.00     0.021 A 
ATOM     40  N   UNL     1      18.944   8.993  54.465  1.00  0.00    -0.264 NA
ATOM     41  C   UNL     1      19.067   9.974  53.555  1.00  0.00     0.111 A 
ENDBRANCH  34  36
ENDBRANCH  28  30
ENDBRANCH   6  28
TORSDOF 7
ENDMDL
MODEL 8
REMARK VINA RESULT:   -10.962      2.797      5.088
REMARK INTER + INTRA:         -14.604
REMARK INTER:                 -13.050
REMARK INTRA:                  -1.553
REMARK CONF_INDEPENDENT:        2.088
REMARK UNBOUND:                -1.553
REMARK SMILES Cc1cn(-c2cc(NC(=O)c3ccc(C)c(Nc4nccc(-c5cccnc5)n4)c3)cc(C(F)(F)F)c2)cn1
REMARK SMILES IDX 11 1 12 2 13 3 14 4 15 5 16 6 30 7 9 8 10 9 8 10 7 12 6 13
REMARK SMILES IDX 31 14 5 15 32 16 37 17 4 18 3 19 38 20 2 21 39 22 1 23 33 24
REMARK SMILES IDX 34 25 35 26 36 27 17 28 18 30 19 31 29 32 20 33 22 34 21 35
REMARK SMILES IDX 23 36 24 37 28 38 25 39 27 40 26 41
REMARK H PARENT 8 11 17 29
ROOT
ATOM      1  C   UNL     1      27.327   1.823  53.170  1.00  0.00     0.042 A 
ATOM      2  C   UNL     1      27.168   1.113  54.370  1.00  0.00     0.014 A 
ATOM      3  C   UNL     1      27.945  -0.010  54.659  1.00  0.00     0.006 A 
ATOM      4  C   UNL     1      28.846  -0.517  53.736  1.00  0.00    -0.027 A 
ATOM      5  C   UNL     1      29.681  -1.747  54.062  1.00  0.00     0.046 C 
ATOM      6  C   UNL     1      28.934   0.123  52.501  1.00  0.00     0.045 A 
ATOM      7  C   UNL     1      28.164   1.263  52.240  1.00  0.00     0.040 A 
ENDROOT
BRANCH   1   8
ATOM      8  C   UNL     1      26.466   2.938  52.730  1.00  0.00     0.255 C 
ATOM      9  O   UNL     1      26.628   3.298  51.589  1.00  0.00    -0.269 OA
ATOM     10  N   UNL     1      25.446   3.254  53.541  1.00  0.00    -0.322 N 
ATOM     11  H   UNL     1      25.382   2.742  54.432  1.00  0.00     0.170 HD
BRANCH  10  12
ATOM     12  C   UNL     1      24.467   4.207  53.288  1.00  0.00     0.044 A 
ATOM     13  C   UNL     1      24.317   4.770  51.997  1.00  0.00     0.052 A 
ATOM     14  C   UNL     1      23.680   4.724  54.340  1.00  0.00     0.039 A 
ATOM     15  C   UNL     1      23.329   5.723  51.730  1.00  0.00     0.049 A 
ATOM     16  C   UNL     1      22.660   5.678  54.062  1.00  0.00     0.060 A 
ATOM     17  C   UNL     1      22.526   6.185  52.768  1.00  0.00     0.039 A 
BRANCH  15  18
ATOM     18  N   UNL     1      23.145   6.255  50.445  1.00  0.00    -0.306 N 
ATOM     19  C   UNL     1      23.507   5.714  49.213  1.00  0.00     0.116 A 
ATOM     20  C   UNL     1      22.654   7.462  50.141  1.00  0.00     0.204 A 
ATOM     21  C   UNL     1      23.211   6.617  48.252  1.00  0.00     0.056 A 
ATOM     22  N   UNL     1      22.648   7.690  48.851  1.00  0.00    -0.242 NA
ATOM     23  C   UNL     1      23.400   6.482  46.761  1.00  0.00     0.068 C 
ENDBRANCH  15  18
BRANCH  16  24
ATOM     24  C   UNL     1      21.802   6.164  55.185  1.00  0.00     0.416 C 
ATOM     25  F   UNL     1      20.833   7.030  54.828  1.00  0.00    -0.166 F 
ATOM     26  F   UNL     1      21.100   5.169  55.714  1.00  0.00    -0.166 F 
ATOM     27  F   UNL     1      22.506   6.847  56.111  1.00  0.00    -0.166 F 
ENDBRANCH  16  24
ENDBRANCH  10  12
ENDBRANCH   1   8
BRANCH   6  28
ATOM     28  N   UNL     1      29.948  -0.270  51.618  1.00  0.00    -0.324 N 
ATOM     29  H   UNL     1      29.735  -0.892  50.825  1.00  0.00     0.170 HD
BRANCH  28  30
ATOM     30  C   UNL     1      31.251   0.190  51.820  1.00  0.00     0.227 A 
ATOM     31  N   UNL     1      32.361  -0.140  51.172  1.00  0.00    -0.221 NA
ATOM     32  N   UNL     1      31.232   1.020  52.895  1.00  0.00    -0.213 NA
ATOM     33  C   UNL     1      33.505   0.424  51.603  1.00  0.00     0.117 A 
ATOM     34  C   UNL     1      32.399   1.532  53.306  1.00  0.00     0.077 A 
ATOM     35  C   UNL     1      33.553   1.240  52.668  1.00  0.00     0.049 A 
BRANCH  34  36
ATOM     36  C   UNL     1      32.320   2.461  54.463  1.00  0.00     0.019 A 
ATOM     37  C   UNL     1      33.258   3.490  54.644  1.00  0.00     0.013 A 
ATOM     38  C   UNL     1      31.300   2.322  55.425  1.00  0.00     0.121 A 
ATOM     39  C   UNL     1      33.150   4.313  55.758  1.00  0.00     0.021 A 
ATOM     40  N   UNL     1      31.196   3.107  56.504  1.00  0.00    -0.264 NA
ATOM     41  C   UNL     1      32.091   4.099  56.640  1.00  0.00     0.111 A 
ENDBRANCH  34  36
ENDBRANCH  28  30
ENDBRANCH   6  28
TORSDOF 7
ENDMDL
MODEL 9
REMARK VINA RESULT:   -10.893      3.919     11.691
REMARK INTER + INTRA:         -14.023
REMARK INTER:                 -12.981
REMARK INTRA:                  -1.043
REMARK CONF_INDEPENDENT:        2.088
REMARK UNBOUND:                -1.043
REMARK SMILES Cc1cn(-c2cc(NC(=O)c3ccc(C)c(Nc4nccc(-c5cccnc5)n4)c3)cc(C(F)(F)F)c2)cn1
REMARK SMILES IDX 11 1 12 2 13 3 14 4 15 5 16 6 30 7 9 8 10 9 8 10 7 12 6 13
REMARK SMILES IDX 31 14 5 15 32 16 37 17 4 18 3 19 38 20 2 21 39 22 1 23 33 24
REMARK SMILES IDX 34 25 35 26 36 27 17 28 18 30 19 31 29 32 20 33 22 34 21 35
REMARK SMILES IDX 23 36 24 37 28 38 25 39 27 40 26 41
REMARK H PARENT 8 11 17 29
ROOT
ATOM      1  C   UNL     1      25.728   3.566  51.857  1.00  0.00     0.042 A 
ATOM      2  C   UNL     1      24.813   3.256  50.840  1.00  0.00     0.014 A 
ATOM      3  C   UNL     1      23.478   3.657  50.916  1.00  0.00     0.006 A 
ATOM      4  C   UNL     1      22.985   4.304  52.037  1.00  0.00    -0.027 A 
ATOM      5  C   UNL     1      21.525   4.728  52.110  1.00  0.00     0.046 C 
ATOM      6  C   UNL     1      23.865   4.523  53.096  1.00  0.00     0.045 A 
ATOM      7  C   UNL     1      25.207   4.135  52.990  1.00  0.00     0.040 A 
ENDROOT
BRANCH   1   8
ATOM      8  C   UNL     1      27.118   3.075  51.919  1.00  0.00     0.255 C 
ATOM      9  O   UNL     1      27.722   3.095  50.874  1.00  0.00    -0.269 OA
ATOM     10  N   UNL     1      27.632   2.904  53.146  1.00  0.00    -0.322 N 
ATOM     11  H   UNL     1      27.000   3.063  53.944  1.00  0.00     0.170 HD
BRANCH  10  12
ATOM     12  C   UNL     1      28.938   2.533  53.440  1.00  0.00     0.044 A 
ATOM     13  C   UNL     1      29.598   1.534  52.682  1.00  0.00     0.052 A 
ATOM     14  C   UNL     1      29.595   3.055  54.575  1.00  0.00     0.039 A 
ATOM     15  C   UNL     1      30.915   1.160  52.964  1.00  0.00     0.049 A 
ATOM     16  C   UNL     1      30.944   2.690  54.847  1.00  0.00     0.060 A 
ATOM     17  C   UNL     1      31.568   1.723  54.056  1.00  0.00     0.039 A 
BRANCH  15  18
ATOM     18  N   UNL     1      31.591   0.203  52.193  1.00  0.00    -0.306 N 
ATOM     19  C   UNL     1      32.908   0.217  51.737  1.00  0.00     0.116 A 
ATOM     20  C   UNL     1      31.068  -0.903  51.650  1.00  0.00     0.204 A 
ATOM     21  C   UNL     1      33.097  -0.871  50.959  1.00  0.00     0.056 A 
ATOM     22  N   UNL     1      31.944  -1.576  50.944  1.00  0.00    -0.242 NA
ATOM     23  C   UNL     1      34.361  -1.302  50.256  1.00  0.00     0.068 C 
ENDBRANCH  15  18
BRANCH  16  24
ATOM     24  C   UNL     1      31.635   3.304  56.021  1.00  0.00     0.416 C 
ATOM     25  F   UNL     1      31.022   4.386  56.542  1.00  0.00    -0.166 F 
ATOM     26  F   UNL     1      31.650   2.472  57.055  1.00  0.00    -0.166 F 
ATOM     27  F   UNL     1      32.866   3.762  55.710  1.00  0.00    -0.166 F 
ENDBRANCH  16  24
ENDBRANCH  10  12
ENDBRANCH   1   8
BRANCH   6  28
ATOM     28  N   UNL     1      23.434   5.315  54.168  1.00  0.00    -0.324 N 
ATOM     29  H   UNL     1      22.429   5.430  54.358  1.00  0.00     0.170 HD
BRANCH  28  30
ATOM     30  C   UNL     1      24.380   5.949  54.976  1.00  0.00     0.227 A 
ATOM     31  N   UNL     1      25.687   6.078  54.785  1.00  0.00    -0.221 NA
ATOM     32  N   UNL     1      23.743   6.377  56.097  1.00  0.00    -0.213 NA
ATOM     33  C   UNL     1      26.382   6.704  55.754  1.00  0.00     0.117 A 
ATOM     34  C   UNL     1      24.481   6.965  57.045  1.00  0.00     0.077 A 
ATOM     35  C   UNL     1      25.812   7.136  56.889  1.00  0.00     0.049 A 
BRANCH  34  36
ATOM     36  C   UNL     1      23.732   7.447  58.235  1.00  0.00     0.019 A 
ATOM     37  C   UNL     1      22.331   7.527  58.240  1.00  0.00     0.013 A 
ATOM     38  C   UNL     1      24.419   7.854  59.396  1.00  0.00     0.121 A 
ATOM     39  C   UNL     1      21.685   8.009  59.371  1.00  0.00     0.021 A 
ATOM     40  N   UNL     1      23.803   8.327  60.487  1.00  0.00    -0.264 NA
ATOM     41  C   UNL     1      22.461   8.369  60.473  1.00  0.00     0.111 A 
ENDBRANCH  34  36
ENDBRANCH  28  30
ENDBRANCH   6  28
TORSDOF 7
ENDMDL
MODEL 10
REMARK VINA RESULT:   -10.888      8.368     15.211
REMARK INTER + INTRA:         -14.280
REMARK INTER:                 -12.976
REMARK INTRA:                  -1.305
REMARK CONF_INDEPENDENT:        2.088
REMARK UNBOUND:                -1.305
REMARK SMILES Cc1cn(-c2cc(NC(=O)c3ccc(C)c(Nc4nccc(-c5cccnc5)n4)c3)cc(C(F)(F)F)c2)cn1
REMARK SMILES IDX 11 1 12 2 13 3 14 4 15 5 16 6 30 7 9 8 10 9 8 10 7 12 6 13
REMARK SMILES IDX 31 14 5 15 32 16 37 17 4 18 3 19 38 20 2 21 39 22 1 23 33 24
REMARK SMILES IDX 34 25 35 26 36 27 17 28 18 30 19 31 29 32 20 33 22 34 21 35
REMARK SMILES IDX 23 36 24 37 28 38 25 39 27 40 26 41
REMARK H PARENT 8 11 17 29
ROOT
ATOM      1  C   UNL     1      35.986  -1.708  49.300  1.00  0.00     0.042 A 
ATOM      2  C   UNL     1      35.196  -2.862  49.190  1.00  0.00     0.014 A 
ATOM      3  C   UNL     1      33.822  -2.827  49.430  1.00  0.00     0.006 A 
ATOM      4  C   UNL     1      33.197  -1.670  49.867  1.00  0.00    -0.027 A 
ATOM      5  C   UNL     1      31.699  -1.649  50.132  1.00  0.00     0.046 C 
ATOM      6  C   UNL     1      33.995  -0.546  50.078  1.00  0.00     0.045 A 
ATOM      7  C   UNL     1      35.368  -0.595  49.808  1.00  0.00     0.040 A 
ENDROOT
BRANCH   1   8
ATOM      8  C   UNL     1      37.458  -1.680  49.190  1.00  0.00     0.255 C 
ATOM      9  O   UNL     1      38.044  -1.296  50.172  1.00  0.00    -0.269 OA
ATOM     10  N   UNL     1      37.984  -2.310  48.128  1.00  0.00    -0.322 N 
ATOM     11  H   UNL     1      37.323  -2.703  47.443  1.00  0.00     0.170 HD
BRANCH  10  12
ATOM     12  C   UNL     1      39.338  -2.480  47.868  1.00  0.00     0.044 A 
ATOM     13  C   UNL     1      39.907  -2.028  46.652  1.00  0.00     0.052 A 
ATOM     14  C   UNL     1      40.153  -3.214  48.758  1.00  0.00     0.039 A 
ATOM     15  C   UNL     1      41.270  -2.185  46.386  1.00  0.00     0.049 A 
ATOM     16  C   UNL     1      41.545  -3.354  48.495  1.00  0.00     0.060 A 
ATOM     17  C   UNL     1      42.072  -2.866  47.297  1.00  0.00     0.039 A 
BRANCH  15  18
ATOM     18  N   UNL     1      41.852  -1.704  45.204  1.00  0.00    -0.306 N 
ATOM     19  C   UNL     1      42.149  -0.390  44.846  1.00  0.00     0.116 A 
ATOM     20  C   UNL     1      42.163  -2.418  44.115  1.00  0.00     0.204 A 
ATOM     21  C   UNL     1      42.620  -0.394  43.580  1.00  0.00     0.056 A 
ATOM     22  N   UNL     1      42.652  -1.676  43.152  1.00  0.00    -0.242 NA
ATOM     23  C   UNL     1      43.093   0.783  42.761  1.00  0.00     0.068 C 
ENDBRANCH  15  18
BRANCH  16  24
ATOM     24  C   UNL     1      42.396  -4.085  49.483  1.00  0.00     0.416 C 
ATOM     25  F   UNL     1      42.369  -3.587  50.735  1.00  0.00    -0.166 F 
ATOM     26  F   UNL     1      41.954  -5.323  49.669  1.00  0.00    -0.166 F 
ATOM     27  F   UNL     1      43.705  -4.047  49.159  1.00  0.00    -0.166 F 
ENDBRANCH  16  24
ENDBRANCH  10  12
ENDBRANCH   1   8
BRANCH   6  28
ATOM     28  N   UNL     1      33.367   0.673  50.361  1.00  0.00    -0.324 N 
ATOM     29  H   UNL     1      33.041   1.280  49.596  1.00  0.00     0.170 HD
BRANCH  28  30
ATOM     30  C   UNL     1      33.185   1.060  51.691  1.00  0.00     0.227 A 
ATOM     31  N   UNL     1      33.888   1.927  52.409  1.00  0.00    -0.221 NA
ATOM     32  N   UNL     1      32.168   0.318  52.200  1.00  0.00    -0.213 NA
ATOM     33  C   UNL     1      33.523   2.084  53.695  1.00  0.00     0.117 A 
ATOM     34  C   UNL     1      31.863   0.486  53.492  1.00  0.00     0.077 A 
ATOM     35  C   UNL     1      32.537   1.369  54.260  1.00  0.00     0.049 A 
BRANCH  34  36
ATOM     36  C   UNL     1      30.721  -0.322  53.993  1.00  0.00     0.019 A 
ATOM     37  C   UNL     1      29.628   0.273  54.643  1.00  0.00     0.013 A 
ATOM     38  C   UNL     1      30.714  -1.723  53.839  1.00  0.00     0.121 A 
ATOM     39  C   UNL     1      28.600  -0.536  55.112  1.00  0.00     0.021 A 
ATOM     40  N   UNL     1      29.730  -2.508  54.297  1.00  0.00    -0.264 NA
ATOM     41  C   UNL     1      28.685  -1.910  54.891  1.00  0.00     0.111 A 
ENDBRANCH  34  36
ENDBRANCH  28  30
ENDBRANCH   6  28
TORSDOF 7
ENDMDL
MODEL 11
REMARK VINA RESULT:   -10.874      3.770     11.917
REMARK INTER + INTRA:         -14.230
REMARK INTER:                 -12.962
REMARK INTRA:                  -1.268
REMARK CONF_INDEPENDENT:        2.088
REMARK UNBOUND:                -1.268
REMARK SMILES Cc1cn(-c2cc(NC(=O)c3ccc(C)c(Nc4nccc(-c5cccnc5)n4)c3)cc(C(F)(F)F)c2)cn1
REMARK SMILES IDX 11 1 12 2 13 3 14 4 15 5 16 6 30 7 9 8 10 9 8 10 7 12 6 13
REMARK SMILES IDX 31 14 5 15 32 16 37 17 4 18 3 19 38 20 2 21 39 22 1 23 33 24
REMARK SMILES IDX 34 25 35 26 36 27 17 28 18 30 19 31 29 32 20 33 22 34 21 35
REMARK SMILES IDX 23 36 24 37 28 38 25 39 27 40 26 41
REMARK H PARENT 8 11 17 29
ROOT
ATOM      1  C   UNL     1      25.887   3.796  51.887  1.00  0.00     0.042 A 
ATOM      2  C   UNL     1      25.200   4.171  50.723  1.00  0.00     0.014 A 
ATOM      3  C   UNL     1      24.085   5.009  50.774  1.00  0.00     0.006 A 
ATOM      4  C   UNL     1      23.562   5.435  51.984  1.00  0.00    -0.027 A 
ATOM      5  C   UNL     1      22.341   6.343  52.026  1.00  0.00     0.046 C 
ATOM      6  C   UNL     1      24.178   4.982  53.150  1.00  0.00     0.045 A 
ATOM      7  C   UNL     1      25.311   4.162  53.076  1.00  0.00     0.040 A 
ENDROOT
BRANCH   1   8
ATOM      8  C   UNL     1      26.991   2.818  51.937  1.00  0.00     0.255 C 
ATOM      9  O   UNL     1      27.685   2.769  50.951  1.00  0.00    -0.269 OA
ATOM     10  N   UNL     1      27.254   2.284  53.139  1.00  0.00    -0.322 N 
ATOM     11  H   UNL     1      26.628   2.544  53.914  1.00  0.00     0.170 HD
BRANCH  10  12
ATOM     12  C   UNL     1      28.294   1.411  53.435  1.00  0.00     0.044 A 
ATOM     13  C   UNL     1      29.605   1.652  52.953  1.00  0.00     0.052 A 
ATOM     14  C   UNL     1      28.044   0.202  54.119  1.00  0.00     0.039 A 
ATOM     15  C   UNL     1      30.659   0.785  53.253  1.00  0.00     0.049 A 
ATOM     16  C   UNL     1      29.124  -0.669  54.443  1.00  0.00     0.060 A 
ATOM     17  C   UNL     1      30.407  -0.377  53.973  1.00  0.00     0.039 A 
BRANCH  15  18
ATOM     18  N   UNL     1      31.969   1.037  52.816  1.00  0.00    -0.306 N 
ATOM     19  C   UNL     1      32.623   0.554  51.684  1.00  0.00     0.116 A 
ATOM     20  C   UNL     1      32.908   1.739  53.462  1.00  0.00     0.204 A 
ATOM     21  C   UNL     1      33.900   0.992  51.715  1.00  0.00     0.056 A 
ATOM     22  N   UNL     1      34.049   1.759  52.819  1.00  0.00    -0.242 NA
ATOM     23  C   UNL     1      34.991   0.748  50.701  1.00  0.00     0.068 C 
ENDBRANCH  15  18
BRANCH  16  24
ATOM     24  C   UNL     1      28.839  -1.913  55.220  1.00  0.00     0.416 C 
ATOM     25  F   UNL     1      27.968  -2.761  54.639  1.00  0.00    -0.166 F 
ATOM     26  F   UNL     1      29.927  -2.667  55.329  1.00  0.00    -0.166 F 
ATOM     27  F   UNL     1      28.272  -1.651  56.416  1.00  0.00    -0.166 F 
ENDBRANCH  16  24
ENDBRANCH  10  12
ENDBRANCH   1   8
BRANCH   6  28
ATOM     28  N   UNL     1      23.770   5.527  54.374  1.00  0.00    -0.324 N 
ATOM     29  H   UNL     1      22.945   5.151  54.861  1.00  0.00     0.170 HD
BRANCH  28  30
ATOM     30  C   UNL     1      24.493   6.585  54.930  1.00  0.00     0.227 A 
ATOM     31  N   UNL     1      25.728   6.584  55.416  1.00  0.00    -0.221 NA
ATOM     32  N   UNL     1      23.673   7.666  54.973  1.00  0.00    -0.213 NA
ATOM     33  C   UNL     1      26.173   7.743  55.938  1.00  0.00     0.117 A 
ATOM     34  C   UNL     1      24.149   8.785  55.531  1.00  0.00     0.077 A 
ATOM     35  C   UNL     1      25.405   8.840  56.024  1.00  0.00     0.049 A 
BRANCH  34  36
ATOM     36  C   UNL     1      23.225   9.950  55.523  1.00  0.00     0.019 A 
ATOM     37  C   UNL     1      22.635  10.429  56.703  1.00  0.00     0.013 A 
ATOM     38  C   UNL     1      22.903  10.599  54.315  1.00  0.00     0.121 A 
ATOM     39  C   UNL     1      21.760  11.505  56.632  1.00  0.00     0.021 A 
ATOM     40  N   UNL     1      22.054  11.631  54.239  1.00  0.00    -0.264 NA
ATOM     41  C   UNL     1      21.524  12.085  55.386  1.00  0.00     0.111 A 
ENDBRANCH  34  36
ENDBRANCH  28  30
ENDBRANCH   6  28
TORSDOF 7
ENDMDL
MODEL 12
REMARK VINA RESULT:   -10.841      4.548      7.555
REMARK INTER + INTRA:         -13.720
REMARK INTER:                 -12.929
REMARK INTRA:                  -0.791
REMARK CONF_INDEPENDENT:        2.088
REMARK UNBOUND:                -0.791
REMARK SMILES Cc1cn(-c2cc(NC(=O)c3ccc(C)c(Nc4nccc(-c5cccnc5)n4)c3)cc(C(F)(F)F)c2)cn1
REMARK SMILES IDX 11 1 12 2 13 3 14 4 15 5 16 6 30 7 9 8 10 9 8 10 7 12 6 13
REMARK SMILES IDX 31 14 5 15 32 16 37 17 4 18 3 19 38 20 2 21 39 22 1 23 33 24
REMARK SMILES IDX 34 25 35 26 36 27 17 28 18 30 19 31 29 32 20 33 22 34 21 35
REMARK SMILES IDX 23 36 24 37 28 38 25 39 27 40 26 41
REMARK H PARENT 8 11 17 29
ROOT
ATOM      1  C   UNL     1      23.033   5.937  52.735  1.00  0.00     0.042 A 
ATOM      2  C   UNL     1      22.713   5.639  51.402  1.00  0.00     0.014 A 
ATOM      3  C   UNL     1      23.290   4.553  50.741  1.00  0.00     0.006 A 
ATOM      4  C   UNL     1      24.263   3.777  51.349  1.00  0.00    -0.027 A 
ATOM      5  C   UNL     1      24.889   2.600  50.613  1.00  0.00     0.046 C 
ATOM      6  C   UNL     1      24.661   4.131  52.637  1.00  0.00     0.045 A 
ATOM      7  C   UNL     1      24.052   5.209  53.292  1.00  0.00     0.040 A 
ENDROOT
BRANCH   1   8
ATOM      8  C   UNL     1      22.571   7.133  53.466  1.00  0.00     0.255 C 
ATOM      9  O   UNL     1      23.409   7.980  53.657  1.00  0.00    -0.269 OA
ATOM     10  N   UNL     1      21.243   7.261  53.612  1.00  0.00    -0.322 N 
ATOM     11  H   UNL     1      20.658   6.488  53.264  1.00  0.00     0.170 HD
BRANCH  10  12
ATOM     12  C   UNL     1      20.586   8.340  54.190  1.00  0.00     0.044 A 
ATOM     13  C   UNL     1      19.529   8.995  53.511  1.00  0.00     0.052 A 
ATOM     14  C   UNL     1      21.036   8.884  55.412  1.00  0.00     0.039 A 
ATOM     15  C   UNL     1      18.855  10.075  54.088  1.00  0.00     0.049 A 
ATOM     16  C   UNL     1      20.334   9.970  56.009  1.00  0.00     0.060 A 
ATOM     17  C   UNL     1      19.277  10.568  55.318  1.00  0.00     0.039 A 
BRANCH  15  18
ATOM     18  N   UNL     1      17.779  10.704  53.442  1.00  0.00    -0.306 N 
ATOM     19  C   UNL     1      16.651  11.302  54.001  1.00  0.00     0.116 A 
ATOM     20  C   UNL     1      17.570  10.778  52.123  1.00  0.00     0.204 A 
ATOM     21  C   UNL     1      15.842  11.699  52.995  1.00  0.00     0.056 A 
ATOM     22  N   UNL     1      16.450  11.392  51.827  1.00  0.00    -0.242 NA
ATOM     23  C   UNL     1      14.516  12.412  53.096  1.00  0.00     0.068 C 
ENDBRANCH  15  18
BRANCH  16  24
ATOM     24  C   UNL     1      20.795  10.487  57.332  1.00  0.00     0.416 C 
ATOM     25  F   UNL     1      21.031  11.814  57.375  1.00  0.00    -0.166 F 
ATOM     26  F   UNL     1      19.851  10.346  58.255  1.00  0.00    -0.166 F 
ATOM     27  F   UNL     1      21.972   9.948  57.712  1.00  0.00    -0.166 F 
ENDBRANCH  16  24
ENDBRANCH  10  12
ENDBRANCH   1   8
BRANCH   6  28
ATOM     28  N   UNL     1      25.521   3.269  53.330  1.00  0.00    -0.324 N 
ATOM     29  H   UNL     1      25.263   2.918  54.263  1.00  0.00     0.170 HD
BRANCH  28  30
ATOM     30  C   UNL     1      26.731   2.890  52.745  1.00  0.00     0.227 A 
ATOM     31  N   UNL     1      27.375   3.448  51.729  1.00  0.00    -0.221 NA
ATOM     32  N   UNL     1      27.143   1.748  53.355  1.00  0.00    -0.213 NA
ATOM     33  C   UNL     1      28.514   2.849  51.331  1.00  0.00     0.117 A 
ATOM     34  C   UNL     1      28.263   1.172  52.904  1.00  0.00     0.077 A 
ATOM     35  C   UNL     1      28.964   1.712  51.884  1.00  0.00     0.049 A 
BRANCH  34  36
ATOM     36  C   UNL     1      28.690  -0.054  53.627  1.00  0.00     0.019 A 
ATOM     37  C   UNL     1      27.978  -0.540  54.735  1.00  0.00     0.013 A 
ATOM     38  C   UNL     1      29.841  -0.759  53.222  1.00  0.00     0.121 A 
ATOM     39  C   UNL     1      28.439  -1.677  55.387  1.00  0.00     0.021 A 
ATOM     40  N   UNL     1      30.294  -1.851  53.852  1.00  0.00    -0.264 NA
ATOM     41  C   UNL     1      29.579  -2.308  54.893  1.00  0.00     0.111 A 
ENDBRANCH  34  36
ENDBRANCH  28  30
ENDBRANCH   6  28
TORSDOF 7
ENDMDL
MODEL 13
REMARK VINA RESULT:   -10.811      3.542     12.240
REMARK INTER + INTRA:         -14.198
REMARK INTER:                 -12.899
REMARK INTRA:                  -1.299
REMARK CONF_INDEPENDENT:        2.088
REMARK UNBOUND:                -1.299
REMARK SMILES Cc1cn(-c2cc(NC(=O)c3ccc(C)c(Nc4nccc(-c5cccnc5)n4)c3)cc(C(F)(F)F)c2)cn1
REMARK SMILES IDX 11 1 12 2 13 3 14 4 15 5 16 6 30 7 9 8 10 9 8 10 7 12 6 13
REMARK SMILES IDX 31 14 5 15 32 16 37 17 4 18 3 19 38 20 2 21 39 22 1 23 33 24
REMARK SMILES IDX 34 25 35 26 36 27 17 28 18 30 19 31 29 32 20 33 22 34 21 35
REMARK SMILES IDX 23 36 24 37 28 38 25 39 27 40 26 41
REMARK H PARENT 8 11 17 29
ROOT
ATOM      1  C   UNL     1      25.504   3.807  51.896  1.00  0.00     0.042 A 
ATOM      2  C   UNL     1      24.791   4.102  50.724  1.00  0.00     0.014 A 
ATOM      3  C   UNL     1      23.473   4.559  50.771  1.00  0.00     0.006 A 
ATOM      4  C   UNL     1      22.789   4.659  51.972  1.00  0.00    -0.027 A 
ATOM      5  C   UNL     1      21.349   5.151  52.008  1.00  0.00     0.046 C 
ATOM      6  C   UNL     1      23.459   4.268  53.131  1.00  0.00     0.045 A 
ATOM      7  C   UNL     1      24.789   3.836  53.065  1.00  0.00     0.040 A 
ENDROOT
BRANCH   1   8
ATOM      8  C   UNL     1      26.850   3.202  51.934  1.00  0.00     0.255 C 
ATOM      9  O   UNL     1      27.348   2.979  50.858  1.00  0.00    -0.269 OA
ATOM     10  N   UNL     1      27.464   3.201  53.127  1.00  0.00    -0.322 N 
ATOM     11  H   UNL     1      26.927   3.558  53.929  1.00  0.00     0.170 HD
BRANCH  10  12
ATOM     12  C   UNL     1      28.758   2.762  53.377  1.00  0.00     0.044 A 
ATOM     13  C   UNL     1      29.347   1.745  52.585  1.00  0.00     0.052 A 
ATOM     14  C   UNL     1      29.471   3.232  54.502  1.00  0.00     0.039 A 
ATOM     15  C   UNL     1      30.652   1.304  52.824  1.00  0.00     0.049 A 
ATOM     16  C   UNL     1      30.808   2.798  54.730  1.00  0.00     0.060 A 
ATOM     17  C   UNL     1      31.361   1.815  53.906  1.00  0.00     0.039 A 
BRANCH  15  18
ATOM     18  N   UNL     1      31.259   0.328  52.019  1.00  0.00    -0.306 N 
ATOM     19  C   UNL     1      32.606  -0.019  51.930  1.00  0.00     0.116 A 
ATOM     20  C   UNL     1      30.665  -0.424  51.085  1.00  0.00     0.204 A 
ATOM     21  C   UNL     1      32.738  -0.951  50.961  1.00  0.00     0.056 A 
ATOM     22  N   UNL     1      31.508  -1.215  50.467  1.00  0.00    -0.242 NA
ATOM     23  C   UNL     1      33.999  -1.648  50.508  1.00  0.00     0.068 C 
ENDBRANCH  15  18
BRANCH  16  24
ATOM     24  C   UNL     1      31.560   3.358  55.893  1.00  0.00     0.416 C 
ATOM     25  F   UNL     1      30.963   4.396  56.511  1.00  0.00    -0.166 F 
ATOM     26  F   UNL     1      31.650   2.469  56.875  1.00  0.00    -0.166 F 
ATOM     27  F   UNL     1      32.762   3.855  55.535  1.00  0.00    -0.166 F 
ENDBRANCH  16  24
ENDBRANCH  10  12
ENDBRANCH   1   8
BRANCH   6  28
ATOM     28  N   UNL     1      22.848   4.512  54.368  1.00  0.00    -0.324 N 
ATOM     29  H   UNL     1      22.306   3.771  54.835  1.00  0.00     0.170 HD
BRANCH  28  30
ATOM     30  C   UNL     1      22.981   5.768  54.963  1.00  0.00     0.227 A 
ATOM     31  N   UNL     1      23.943   6.214  55.761  1.00  0.00    -0.221 NA
ATOM     32  N   UNL     1      21.876   6.491  54.649  1.00  0.00    -0.213 NA
ATOM     33  C   UNL     1      23.804   7.466  56.237  1.00  0.00     0.117 A 
ATOM     34  C   UNL     1      21.766   7.718  55.172  1.00  0.00     0.077 A 
ATOM     35  C   UNL     1      22.727   8.223  55.976  1.00  0.00     0.049 A 
BRANCH  34  36
ATOM     36  C   UNL     1      20.556   8.482  54.771  1.00  0.00     0.019 A 
ATOM     37  C   UNL     1      19.395   8.490  55.561  1.00  0.00     0.013 A 
ATOM     38  C   UNL     1      20.538   9.212  53.566  1.00  0.00     0.121 A 
ATOM     39  C   UNL     1      18.285   9.201  55.124  1.00  0.00     0.021 A 
ATOM     40  N   UNL     1      19.468   9.893  53.135  1.00  0.00    -0.264 NA
ATOM     41  C   UNL     1      18.380   9.904  53.923  1.00  0.00     0.111 A 
ENDBRANCH  34  36
ENDBRANCH  28  30
ENDBRANCH   6  28
TORSDOF 7
ENDMDL
MODEL 14
REMARK VINA RESULT:   -10.766      4.729     13.558
REMARK INTER + INTRA:         -14.224
REMARK INTER:                 -12.854
REMARK INTRA:                  -1.370
REMARK CONF_INDEPENDENT:        2.088
REMARK UNBOUND:                -1.370
REMARK SMILES Cc1cn(-c2cc(NC(=O)c3ccc(C)c(Nc4nccc(-c5cccnc5)n4)c3)cc(C(F)(F)F)c2)cn1
REMARK SMILES IDX 11 1 12 2 13 3 14 4 15 5 16 6 30 7 9 8 10 9 8 10 7 12 6 13
REMARK SMILES IDX 31 14 5 15 32 16 37 17 4 18 3 19 38 20 2 21 39 22 1 23 33 24
REMARK SMILES IDX 34 25 35 26 36 27 17 28 18 30 19 31 29 32 20 33 22 34 21 35
REMARK SMILES IDX 23 36 24 37 28 38 25 39 27 40 26 41
REMARK H PARENT 8 11 17 29
ROOT
ATOM      1  C   UNL     1      21.040   7.318  54.282  1.00  0.00     0.042 A 
ATOM      2  C   UNL     1      20.889   7.462  55.669  1.00  0.00     0.014 A 
ATOM      3  C   UNL     1      20.161   8.521  56.215  1.00  0.00     0.006 A 
ATOM      4  C   UNL     1      19.629   9.516  55.412  1.00  0.00    -0.027 A 
ATOM      5  C   UNL     1      18.844  10.669  56.022  1.00  0.00     0.046 C 
ATOM      6  C   UNL     1      19.864   9.434  54.040  1.00  0.00     0.045 A 
ATOM      7  C   UNL     1      20.575   8.351  53.510  1.00  0.00     0.040 A 
ENDROOT
BRANCH   1   8
ATOM      8  C   UNL     1      21.894   6.307  53.627  1.00  0.00     0.255 C 
ATOM      9  O   UNL     1      21.851   5.202  54.109  1.00  0.00    -0.269 OA
ATOM     10  N   UNL     1      22.417   6.653  52.441  1.00  0.00    -0.322 N 
ATOM     11  H   UNL     1      22.238   7.613  52.114  1.00  0.00     0.170 HD
BRANCH  10  12
ATOM     12  C   UNL     1      23.177   5.836  51.615  1.00  0.00     0.044 A 
ATOM     13  C   UNL     1      24.277   5.104  52.128  1.00  0.00     0.052 A 
ATOM     14  C   UNL     1      22.945   5.809  50.222  1.00  0.00     0.039 A 
ATOM     15  C   UNL     1      25.041   4.271  51.306  1.00  0.00     0.049 A 
ATOM     16  C   UNL     1      23.711   4.943  49.391  1.00  0.00     0.060 A 
ATOM     17  C   UNL     1      24.768   4.215  49.943  1.00  0.00     0.039 A 
BRANCH  15  18
ATOM     18  N   UNL     1      26.106   3.511  51.813  1.00  0.00    -0.306 N 
ATOM     19  C   UNL     1      26.512   3.345  53.135  1.00  0.00     0.116 A 
ATOM     20  C   UNL     1      27.025   2.847  51.102  1.00  0.00     0.204 A 
ATOM     21  C   UNL     1      27.636   2.595  53.141  1.00  0.00     0.056 A 
ATOM     22  N   UNL     1      27.922   2.267  51.862  1.00  0.00    -0.242 NA
ATOM     23  C   UNL     1      28.437   2.132  54.333  1.00  0.00     0.068 C 
ENDBRANCH  15  18
BRANCH  16  24
ATOM     24  C   UNL     1      23.405   4.889  47.929  1.00  0.00     0.416 C 
ATOM     25  F   UNL     1      22.329   5.604  47.546  1.00  0.00    -0.166 F 
ATOM     26  F   UNL     1      24.376   5.450  47.217  1.00  0.00    -0.166 F 
ATOM     27  F   UNL     1      23.116   3.639  47.511  1.00  0.00    -0.166 F 
ENDBRANCH  16  24
ENDBRANCH  10  12
ENDBRANCH   1   8
BRANCH   6  28
ATOM     28  N   UNL     1      19.202  10.334  53.196  1.00  0.00    -0.324 N 
ATOM     29  H   UNL     1      19.739  10.941  52.560  1.00  0.00     0.170 HD
BRANCH  28  30
ATOM     30  C   UNL     1      17.808  10.403  53.222  1.00  0.00     0.227 A 
ATOM     31  N   UNL     1      17.025  11.472  53.155  1.00  0.00    -0.221 NA
ATOM     32  N   UNL     1      17.337   9.143  53.414  1.00  0.00    -0.213 NA
ATOM     33  C   UNL     1      15.699  11.259  53.248  1.00  0.00     0.117 A 
ATOM     34  C   UNL     1      16.014   8.985  53.532  1.00  0.00     0.077 A 
ATOM     35  C   UNL     1      15.175  10.040  53.453  1.00  0.00     0.049 A 
BRANCH  34  36
ATOM     36  C   UNL     1      15.548   7.585  53.706  1.00  0.00     0.019 A 
ATOM     37  C   UNL     1      14.775   7.198  54.813  1.00  0.00     0.013 A 
ATOM     38  C   UNL     1      15.885   6.596  52.761  1.00  0.00     0.121 A 
ATOM     39  C   UNL     1      14.389   5.870  54.936  1.00  0.00     0.021 A 
ATOM     40  N   UNL     1      15.522   5.312  52.879  1.00  0.00    -0.264 NA
ATOM     41  C   UNL     1      14.763   4.976  53.934  1.00  0.00     0.111 A 
ENDBRANCH  34  36
ENDBRANCH  28  30
ENDBRANCH   6  28
TORSDOF 7
ENDMDL
MODEL 15
REMARK VINA RESULT:   -10.546      8.203     14.852
REMARK INTER + INTRA:         -13.992
REMARK INTER:                 -12.634
REMARK INTRA:                  -1.358
REMARK CONF_INDEPENDENT:        2.088
REMARK UNBOUND:                -1.358
REMARK SMILES Cc1cn(-c2cc(NC(=O)c3ccc(C)c(Nc4nccc(-c5cccnc5)n4)c3)cc(C(F)(F)F)c2)cn1
REMARK SMILES IDX 11 1 12 2 13 3 14 4 15 5 16 6 30 7 9 8 10 9 8 10 7 12 6 13
REMARK SMILES IDX 31 14 5 15 32 16 37 17 4 18 3 19 38 20 2 21 39 22 1 23 33 24
REMARK SMILES IDX 34 25 35 26 36 27 17 28 18 30 19 31 29 32 20 33 22 34 21 35
REMARK SMILES IDX 23 36 24 37 28 38 25 39 27 40 26 41
REMARK H PARENT 8 11 17 29
ROOT
ATOM      1  C   UNL     1      36.097  -1.530  49.468  1.00  0.00     0.042 A 
ATOM      2  C   UNL     1      35.432  -2.749  49.263  1.00  0.00     0.014 A 
ATOM      3  C   UNL     1      34.046  -2.852  49.391  1.00  0.00     0.006 A 
ATOM      4  C   UNL     1      33.281  -1.774  49.806  1.00  0.00    -0.027 A 
ATOM      5  C   UNL     1      31.771  -1.902  49.948  1.00  0.00     0.046 C 
ATOM      6  C   UNL     1      33.947  -0.588  50.111  1.00  0.00     0.045 A 
ATOM      7  C   UNL     1      35.336  -0.498  49.952  1.00  0.00     0.040 A 
ENDROOT
BRANCH   1   8
ATOM      8  C   UNL     1      37.563  -1.361  49.479  1.00  0.00     0.255 C 
ATOM      9  O   UNL     1      37.974  -0.446  50.150  1.00  0.00    -0.269 OA
ATOM     10  N   UNL     1      38.279  -2.370  48.961  1.00  0.00    -0.322 N 
ATOM     11  H   UNL     1      37.753  -3.148  48.540  1.00  0.00     0.170 HD
BRANCH  10  12
ATOM     12  C   UNL     1      39.665  -2.461  48.942  1.00  0.00     0.044 A 
ATOM     13  C   UNL     1      40.410  -2.477  50.148  1.00  0.00     0.052 A 
ATOM     14  C   UNL     1      40.371  -2.417  47.720  1.00  0.00     0.039 A 
ATOM     15  C   UNL     1      41.803  -2.578  50.139  1.00  0.00     0.049 A 
ATOM     16  C   UNL     1      41.789  -2.543  47.713  1.00  0.00     0.060 A 
ATOM     17  C   UNL     1      42.482  -2.587  48.925  1.00  0.00     0.039 A 
BRANCH  15  18
ATOM     18  N   UNL     1      42.547  -2.638  51.328  1.00  0.00    -0.306 N 
ATOM     19  C   UNL     1      42.530  -3.613  52.323  1.00  0.00     0.116 A 
ATOM     20  C   UNL     1      43.375  -1.700  51.802  1.00  0.00     0.204 A 
ATOM     21  C   UNL     1      43.345  -3.210  53.322  1.00  0.00     0.056 A 
ATOM     22  N   UNL     1      43.889  -2.026  52.963  1.00  0.00    -0.242 NA
ATOM     23  C   UNL     1      43.670  -3.936  54.606  1.00  0.00     0.068 C 
ENDBRANCH  15  18
BRANCH  16  24
ATOM     24  C   UNL     1      42.506  -2.555  46.402  1.00  0.00     0.416 C 
ATOM     25  F   UNL     1      43.275  -1.474  46.163  1.00  0.00    -0.166 F 
ATOM     26  F   UNL     1      43.394  -3.540  46.352  1.00  0.00    -0.166 F 
ATOM     27  F   UNL     1      41.657  -2.573  45.353  1.00  0.00    -0.166 F 
ENDBRANCH  16  24
ENDBRANCH  10  12
ENDBRANCH   1   8
BRANCH   6  28
ATOM     28  N   UNL     1      33.184   0.557  50.374  1.00  0.00    -0.324 N 
ATOM     29  H   UNL     1      32.759   1.087  49.600  1.00  0.00     0.170 HD
BRANCH  28  30
ATOM     30  C   UNL     1      33.005   0.974  51.694  1.00  0.00     0.227 A 
ATOM     31  N   UNL     1      33.692   1.876  52.383  1.00  0.00    -0.221 NA
ATOM     32  N   UNL     1      32.010   0.222  52.232  1.00  0.00    -0.213 NA
ATOM     33  C   UNL     1      33.334   2.058  53.668  1.00  0.00     0.117 A 
ATOM     34  C   UNL     1      31.712   0.417  53.522  1.00  0.00     0.077 A 
ATOM     35  C   UNL     1      32.371   1.336  54.260  1.00  0.00     0.049 A 
BRANCH  34  36
ATOM     36  C   UNL     1      30.593  -0.405  54.053  1.00  0.00     0.019 A 
ATOM     37  C   UNL     1      29.523   0.174  54.753  1.00  0.00     0.013 A 
ATOM     38  C   UNL     1      30.588  -1.803  53.880  1.00  0.00     0.121 A 
ATOM     39  C   UNL     1      28.518  -0.647  55.249  1.00  0.00     0.021 A 
ATOM     40  N   UNL     1      29.626  -2.600  54.363  1.00  0.00    -0.264 NA
ATOM     41  C   UNL     1      28.601  -2.017  55.005  1.00  0.00     0.111 A 
ENDBRANCH  34  36
ENDBRANCH  28  30
ENDBRANCH   6  28
TORSDOF 7
ENDMDL
MODEL 16
REMARK VINA RESULT:   -10.509      5.765     10.905
REMARK INTER + INTRA:         -13.773
REMARK INTER:                 -12.597
REMARK INTRA:                  -1.176
REMARK CONF_INDEPENDENT:        2.088
REMARK UNBOUND:                -1.176
REMARK SMILES Cc1cn(-c2cc(NC(=O)c3ccc(C)c(Nc4nccc(-c5cccnc5)n4)c3)cc(C(F)(F)F)c2)cn1
REMARK SMILES IDX 11 1 12 2 13 3 14 4 15 5 16 6 30 7 9 8 10 9 8 10 7 12 6 13
REMARK SMILES IDX 31 14 5 15 32 16 37 17 4 18 3 19 38 20 2 21 39 22 1 23 33 24
REMARK SMILES IDX 34 25 35 26 36 27 17 28 18 30 19 31 29 32 20 33 22 34 21 35
REMARK SMILES IDX 23 36 24 37 28 38 25 39 27 40 26 41
REMARK H PARENT 8 11 17 29
ROOT
ATOM      1  C   UNL     1      22.392   6.447  55.265  1.00  0.00     0.042 A 
ATOM      2  C   UNL     1      21.675   7.583  54.858  1.00  0.00     0.014 A 
ATOM      3  C   UNL     1      21.202   8.514  55.784  1.00  0.00     0.006 A 
ATOM      4  C   UNL     1      21.349   8.310  57.147  1.00  0.00    -0.027 A 
ATOM      5  C   UNL     1      20.821   9.331  58.145  1.00  0.00     0.046 C 
ATOM      6  C   UNL     1      21.969   7.133  57.561  1.00  0.00     0.045 A 
ATOM      7  C   UNL     1      22.459   6.223  56.615  1.00  0.00     0.040 A 
ENDROOT
BRANCH   1   8
ATOM      8  C   UNL     1      22.817   5.353  54.370  1.00  0.00     0.255 C 
ATOM      9  O   UNL     1      21.959   4.551  54.089  1.00  0.00    -0.269 OA
ATOM     10  N   UNL     1      24.009   5.504  53.775  1.00  0.00    -0.322 N 
ATOM     11  H   UNL     1      24.561   6.333  54.038  1.00  0.00     0.170 HD
BRANCH  10  12
ATOM     12  C   UNL     1      24.568   4.645  52.837  1.00  0.00     0.044 A 
ATOM     13  C   UNL     1      23.816   4.196  51.724  1.00  0.00     0.052 A 
ATOM     14  C   UNL     1      25.858   4.105  53.036  1.00  0.00     0.039 A 
ATOM     15  C   UNL     1      24.372   3.340  50.769  1.00  0.00     0.049 A 
ATOM     16  C   UNL     1      26.431   3.251  52.051  1.00  0.00     0.060 A 
ATOM     17  C   UNL     1      25.664   2.857  50.953  1.00  0.00     0.039 A 
BRANCH  15  18
ATOM     18  N   UNL     1      23.650   2.922  49.641  1.00  0.00    -0.306 N 
ATOM     19  C   UNL     1      22.869   1.780  49.475  1.00  0.00     0.116 A 
ATOM     20  C   UNL     1      23.638   3.506  48.437  1.00  0.00     0.204 A 
ATOM     21  C   UNL     1      22.435   1.748  48.196  1.00  0.00     0.056 A 
ATOM     22  N   UNL     1      22.900   2.853  47.572  1.00  0.00    -0.242 NA
ATOM     23  C   UNL     1      21.545   0.719  47.542  1.00  0.00     0.068 C 
ENDBRANCH  15  18
BRANCH  16  24
ATOM     24  C   UNL     1      27.820   2.742  52.259  1.00  0.00     0.416 C 
ATOM     25  F   UNL     1      27.969   1.412  52.103  1.00  0.00    -0.166 F 
ATOM     26  F   UNL     1      28.646   3.221  51.335  1.00  0.00    -0.166 F 
ATOM     27  F   UNL     1      28.266   2.963  53.513  1.00  0.00    -0.166 F 
ENDBRANCH  16  24
ENDBRANCH  10  12
ENDBRANCH   1   8
BRANCH   6  28
ATOM     28  N   UNL     1      22.273   6.982  58.920  1.00  0.00    -0.324 N 
ATOM     29  H   UNL     1      21.712   6.352  59.511  1.00  0.00     0.170 HD
BRANCH  28  30
ATOM     30  C   UNL     1      23.344   7.691  59.467  1.00  0.00     0.227 A 
ATOM     31  N   UNL     1      23.622   8.985  59.368  1.00  0.00    -0.221 NA
ATOM     32  N   UNL     1      24.154   6.798  60.091  1.00  0.00    -0.213 NA
ATOM     33  C   UNL     1      24.755   9.408  59.962  1.00  0.00     0.117 A 
ATOM     34  C   UNL     1      25.284   7.260  60.638  1.00  0.00     0.077 A 
ATOM     35  C   UNL     1      25.603   8.571  60.580  1.00  0.00     0.049 A 
BRANCH  34  36
ATOM     36  C   UNL     1      26.119   6.250  61.339  1.00  0.00     0.019 A 
ATOM     37  C   UNL     1      26.398   6.351  62.712  1.00  0.00     0.013 A 
ATOM     38  C   UNL     1      26.668   5.162  60.633  1.00  0.00     0.121 A 
ATOM     39  C   UNL     1      27.204   5.390  63.309  1.00  0.00     0.021 A 
ATOM     40  N   UNL     1      27.453   4.237  61.202  1.00  0.00    -0.264 NA
ATOM     41  C   UNL     1      27.683   4.344  62.521  1.00  0.00     0.111 A 
ENDBRANCH  34  36
ENDBRANCH  28  30
ENDBRANCH   6  28
TORSDOF 7
ENDMDL
MODEL 17
REMARK VINA RESULT:   -10.441      8.246     14.419
REMARK INTER + INTRA:         -13.667
REMARK INTER:                 -12.529
REMARK INTRA:                  -1.138
REMARK CONF_INDEPENDENT:        2.088
REMARK UNBOUND:                -1.138
REMARK SMILES Cc1cn(-c2cc(NC(=O)c3ccc(C)c(Nc4nccc(-c5cccnc5)n4)c3)cc(C(F)(F)F)c2)cn1
REMARK SMILES IDX 11 1 12 2 13 3 14 4 15 5 16 6 30 7 9 8 10 9 8 10 7 12 6 13
REMARK SMILES IDX 31 14 5 15 32 16 37 17 4 18 3 19 38 20 2 21 39 22 1 23 33 24
REMARK SMILES IDX 34 25 35 26 36 27 17 28 18 30 19 31 29 32 20 33 22 34 21 35
REMARK SMILES IDX 23 36 24 37 28 38 25 39 27 40 26 41
REMARK H PARENT 8 11 17 29
ROOT
ATOM      1  C   UNL     1      35.832  -1.890  49.247  1.00  0.00     0.042 A 
ATOM      2  C   UNL     1      35.031  -3.041  49.303  1.00  0.00     0.014 A 
ATOM      3  C   UNL     1      33.687  -2.973  49.674  1.00  0.00     0.006 A 
ATOM      4  C   UNL     1      33.113  -1.780  50.082  1.00  0.00    -0.027 A 
ATOM      5  C   UNL     1      31.648  -1.723  50.492  1.00  0.00     0.046 C 
ATOM      6  C   UNL     1      33.931  -0.652  50.128  1.00  0.00     0.045 A 
ATOM      7  C   UNL     1      35.271  -0.736  49.727  1.00  0.00     0.040 A 
ENDROOT
BRANCH   1   8
ATOM      8  C   UNL     1      37.285  -1.886  48.990  1.00  0.00     0.255 C 
ATOM      9  O   UNL     1      37.648  -2.557  48.054  1.00  0.00    -0.269 OA
ATOM     10  N   UNL     1      38.000  -0.961  49.647  1.00  0.00    -0.322 N 
ATOM     11  H   UNL     1      37.494  -0.373  50.324  1.00  0.00     0.170 HD
BRANCH  10  12
ATOM     12  C   UNL     1      39.360  -0.722  49.497  1.00  0.00     0.044 A 
ATOM     13  C   UNL     1      39.838   0.163  48.499  1.00  0.00     0.052 A 
ATOM     14  C   UNL     1      40.304  -1.448  50.255  1.00  0.00     0.039 A 
ATOM     15  C   UNL     1      41.204   0.417  48.347  1.00  0.00     0.049 A 
ATOM     16  C   UNL     1      41.694  -1.171  50.114  1.00  0.00     0.060 A 
ATOM     17  C   UNL     1      42.120  -0.268  49.138  1.00  0.00     0.039 A 
BRANCH  15  18
ATOM     18  N   UNL     1      41.683   1.324  47.389  1.00  0.00    -0.306 N 
ATOM     19  C   UNL     1      41.386   1.401  46.030  1.00  0.00     0.116 A 
ATOM     20  C   UNL     1      42.617   2.265  47.574  1.00  0.00     0.204 A 
ATOM     21  C   UNL     1      42.147   2.376  45.486  1.00  0.00     0.056 A 
ATOM     22  N   UNL     1      42.886   2.926  46.475  1.00  0.00    -0.242 NA
ATOM     23  C   UNL     1      42.168   2.847  44.052  1.00  0.00     0.068 C 
ENDBRANCH  15  18
BRANCH  16  24
ATOM     24  C   UNL     1      42.668  -1.911  50.973  1.00  0.00     0.416 C 
ATOM     25  F   UNL     1      42.118  -2.607  51.987  1.00  0.00    -0.166 F 
ATOM     26  F   UNL     1      43.281  -2.866  50.284  1.00  0.00    -0.166 F 
ATOM     27  F   UNL     1      43.535  -1.085  51.594  1.00  0.00    -0.166 F 
ENDBRANCH  16  24
ENDBRANCH  10  12
ENDBRANCH   1   8
BRANCH   6  28
ATOM     28  N   UNL     1      33.338   0.592  50.379  1.00  0.00    -0.324 N 
ATOM     29  H   UNL     1      33.032   1.188  49.597  1.00  0.00     0.170 HD
BRANCH  28  30
ATOM     30  C   UNL     1      33.167   1.017  51.697  1.00  0.00     0.227 A 
ATOM     31  N   UNL     1      33.884   1.893  52.390  1.00  0.00    -0.221 NA
ATOM     32  N   UNL     1      32.141   0.304  52.230  1.00  0.00    -0.213 NA
ATOM     33  C   UNL     1      33.525   2.090  53.672  1.00  0.00     0.117 A 
ATOM     34  C   UNL     1      31.842   0.512  53.518  1.00  0.00     0.077 A 
ATOM     35  C   UNL     1      32.531   1.406  54.259  1.00  0.00     0.049 A 
BRANCH  34  36
ATOM     36  C   UNL     1      30.690  -0.267  54.043  1.00  0.00     0.019 A 
ATOM     37  C   UNL     1      29.541   0.367  54.544  1.00  0.00     0.013 A 
ATOM     38  C   UNL     1      30.728  -1.675  54.065  1.00  0.00     0.121 A 
ATOM     39  C   UNL     1      28.506  -0.411  55.045  1.00  0.00     0.021 A 
ATOM     40  N   UNL     1      29.736  -2.430  54.554  1.00  0.00    -0.264 NA
ATOM     41  C   UNL     1      28.639  -1.798  55.004  1.00  0.00     0.111 A 
ENDBRANCH  34  36
ENDBRANCH  28  30
ENDBRANCH   6  28
TORSDOF 7
ENDMDL
MODEL 18
REMARK VINA RESULT:   -10.429      3.340     11.987
REMARK INTER + INTRA:         -13.655
REMARK INTER:                 -12.517
REMARK INTRA:                  -1.139
REMARK CONF_INDEPENDENT:        2.088
REMARK UNBOUND:                -1.139
REMARK SMILES Cc1cn(-c2cc(NC(=O)c3ccc(C)c(Nc4nccc(-c5cccnc5)n4)c3)cc(C(F)(F)F)c2)cn1
REMARK SMILES IDX 11 1 12 2 13 3 14 4 15 5 16 6 30 7 9 8 10 9 8 10 7 12 6 13
REMARK SMILES IDX 31 14 5 15 32 16 37 17 4 18 3 19 38 20 2 21 39 22 1 23 33 24
REMARK SMILES IDX 34 25 35 26 36 27 17 28 18 30 19 31 29 32 20 33 22 34 21 35
REMARK SMILES IDX 23 36 24 37 28 38 25 39 27 40 26 41
REMARK H PARENT 8 11 17 29
ROOT
ATOM      1  C   UNL     1      25.285   3.758  50.928  1.00  0.00     0.042 A 
ATOM      2  C   UNL     1      25.311   3.680  49.528  1.00  0.00     0.014 A 
ATOM      3  C   UNL     1      24.377   4.361  48.744  1.00  0.00     0.006 A 
ATOM      4  C   UNL     1      23.338   5.073  49.321  1.00  0.00    -0.027 A 
ATOM      5  C   UNL     1      22.323   5.805  48.455  1.00  0.00     0.046 C 
ATOM      6  C   UNL     1      23.246   5.069  50.712  1.00  0.00     0.045 A 
ATOM      7  C   UNL     1      24.208   4.400  51.481  1.00  0.00     0.040 A 
ENDROOT
BRANCH   1   8
ATOM      8  C   UNL     1      26.149   2.974  51.833  1.00  0.00     0.255 C 
ATOM      9  O   UNL     1      25.712   2.799  52.944  1.00  0.00    -0.269 OA
ATOM     10  N   UNL     1      27.183   2.340  51.260  1.00  0.00    -0.322 N 
ATOM     11  H   UNL     1      27.332   2.502  50.254  1.00  0.00     0.170 HD
BRANCH  10  12
ATOM     12  C   UNL     1      28.072   1.486  51.901  1.00  0.00     0.044 A 
ATOM     13  C   UNL     1      29.303   1.131  51.296  1.00  0.00     0.052 A 
ATOM     14  C   UNL     1      27.715   0.856  53.113  1.00  0.00     0.039 A 
ATOM     15  C   UNL     1      30.208   0.279  51.937  1.00  0.00     0.049 A 
ATOM     16  C   UNL     1      28.647   0.007  53.775  1.00  0.00     0.060 A 
ATOM     17  C   UNL     1      29.863  -0.293  53.157  1.00  0.00     0.039 A 
BRANCH  15  18
ATOM     18  N   UNL     1      31.447  -0.045  51.365  1.00  0.00    -0.306 N 
ATOM     19  C   UNL     1      31.767  -1.089  50.500  1.00  0.00     0.116 A 
ATOM     20  C   UNL     1      32.623   0.545  51.614  1.00  0.00     0.204 A 
ATOM     21  C   UNL     1      33.099  -1.063  50.279  1.00  0.00     0.056 A 
ATOM     22  N   UNL     1      33.612  -0.013  50.959  1.00  0.00    -0.242 NA
ATOM     23  C   UNL     1      33.913  -1.979  49.398  1.00  0.00     0.068 C 
ENDBRANCH  15  18
BRANCH  16  24
ATOM     24  C   UNL     1      28.267  -0.598  55.087  1.00  0.00     0.416 C 
ATOM     25  F   UNL     1      27.527  -1.721  55.003  1.00  0.00    -0.166 F 
ATOM     26  F   UNL     1      29.339  -1.024  55.745  1.00  0.00    -0.166 F 
ATOM     27  F   UNL     1      27.500   0.227  55.830  1.00  0.00    -0.166 F 
ENDBRANCH  16  24
ENDBRANCH  10  12
ENDBRANCH   1   8
BRANCH   6  28
ATOM     28  N   UNL     1      22.306   5.911  51.321  1.00  0.00    -0.324 N 
ATOM     29  H   UNL     1      21.544   6.325  50.766  1.00  0.00     0.170 HD
BRANCH  28  30
ATOM     30  C   UNL     1      22.411   6.183  52.686  1.00  0.00     0.227 A 
ATOM     31  N   UNL     1      22.357   5.340  53.710  1.00  0.00    -0.221 NA
ATOM     32  N   UNL     1      22.505   7.530  52.832  1.00  0.00    -0.213 NA
ATOM     33  C   UNL     1      22.442   5.878  54.942  1.00  0.00     0.117 A 
ATOM     34  C   UNL     1      22.554   8.019  54.076  1.00  0.00     0.077 A 
ATOM     35  C   UNL     1      22.521   7.201  55.150  1.00  0.00     0.049 A 
BRANCH  34  36
ATOM     36  C   UNL     1      22.692   9.496  54.181  1.00  0.00     0.019 A 
ATOM     37  C   UNL     1      23.646  10.087  55.025  1.00  0.00     0.013 A 
ATOM     38  C   UNL     1      21.850  10.347  53.439  1.00  0.00     0.121 A 
ATOM     39  C   UNL     1      23.712  11.472  55.101  1.00  0.00     0.021 A 
ATOM     40  N   UNL     1      21.905  11.683  53.514  1.00  0.00    -0.264 NA
ATOM     41  C   UNL     1      22.843  12.222  54.310  1.00  0.00     0.111 A 
ENDBRANCH  34  36
ENDBRANCH  28  30
ENDBRANCH   6  28
TORSDOF 7
ENDMDL
MODEL 19
REMARK VINA RESULT:   -10.357      3.999     10.999
REMARK INTER + INTRA:         -13.910
REMARK INTER:                 -12.445
REMARK INTRA:                  -1.465
REMARK CONF_INDEPENDENT:        2.088
REMARK UNBOUND:                -1.465
REMARK SMILES Cc1cn(-c2cc(NC(=O)c3ccc(C)c(Nc4nccc(-c5cccnc5)n4)c3)cc(C(F)(F)F)c2)cn1
REMARK SMILES IDX 11 1 12 2 13 3 14 4 15 5 16 6 30 7 9 8 10 9 8 10 7 12 6 13
REMARK SMILES IDX 31 14 5 15 32 16 37 17 4 18 3 19 38 20 2 21 39 22 1 23 33 24
REMARK SMILES IDX 34 25 35 26 36 27 17 28 18 30 19 31 29 32 20 33 22 34 21 35
REMARK SMILES IDX 23 36 24 37 28 38 25 39 27 40 26 41
REMARK H PARENT 8 11 17 29
ROOT
ATOM      1  C   UNL     1      25.576   3.809  51.888  1.00  0.00     0.042 A 
ATOM      2  C   UNL     1      24.874   4.089  50.706  1.00  0.00     0.014 A 
ATOM      3  C   UNL     1      23.549   4.527  50.733  1.00  0.00     0.006 A 
ATOM      4  C   UNL     1      22.849   4.623  51.925  1.00  0.00    -0.027 A 
ATOM      5  C   UNL     1      21.402   5.095  51.939  1.00  0.00     0.046 C 
ATOM      6  C   UNL     1      23.508   4.246  53.094  1.00  0.00     0.045 A 
ATOM      7  C   UNL     1      24.846   3.833  53.047  1.00  0.00     0.040 A 
ENDROOT
BRANCH   1   8
ATOM      8  C   UNL     1      26.930   3.223  51.946  1.00  0.00     0.255 C 
ATOM      9  O   UNL     1      27.474   3.069  50.880  1.00  0.00    -0.269 OA
ATOM     10  N   UNL     1      27.497   3.164  53.160  1.00  0.00    -0.322 N 
ATOM     11  H   UNL     1      26.923   3.468  53.960  1.00  0.00     0.170 HD
BRANCH  10  12
ATOM     12  C   UNL     1      28.787   2.731  53.438  1.00  0.00     0.044 A 
ATOM     13  C   UNL     1      29.398   1.719  52.657  1.00  0.00     0.052 A 
ATOM     14  C   UNL     1      29.473   3.203  54.578  1.00  0.00     0.039 A 
ATOM     15  C   UNL     1      30.700   1.284  52.922  1.00  0.00     0.049 A 
ATOM     16  C   UNL     1      30.807   2.775  54.834  1.00  0.00     0.060 A 
ATOM     17  C   UNL     1      31.383   1.797  54.020  1.00  0.00     0.039 A 
BRANCH  15  18
ATOM     18  N   UNL     1      31.329   0.313  52.129  1.00  0.00    -0.306 N 
ATOM     19  C   UNL     1      32.509   0.413  51.394  1.00  0.00     0.116 A 
ATOM     20  C   UNL     1      30.865  -0.908  51.838  1.00  0.00     0.204 A 
ATOM     21  C   UNL     1      32.683  -0.742  50.716  1.00  0.00     0.056 A 
ATOM     22  N   UNL     1      31.661  -1.568  51.033  1.00  0.00    -0.242 NA
ATOM     23  C   UNL     1      33.823  -1.119  49.801  1.00  0.00     0.068 C 
ENDBRANCH  15  18
BRANCH  16  24
ATOM     24  C   UNL     1      31.531   3.336  56.014  1.00  0.00     0.416 C 
ATOM     25  F   UNL     1      31.650   2.497  57.062  1.00  0.00    -0.166 F 
ATOM     26  F   UNL     1      32.801   3.589  55.719  1.00  0.00    -0.166 F 
ATOM     27  F   UNL     1      30.902   4.407  56.541  1.00  0.00    -0.166 F 
ENDBRANCH  16  24
ENDBRANCH  10  12
ENDBRANCH   1   8
BRANCH   6  28
ATOM     28  N   UNL     1      22.879   4.487  54.322  1.00  0.00    -0.324 N 
ATOM     29  H   UNL     1      22.380   3.729  54.807  1.00  0.00     0.170 HD
BRANCH  28  30
ATOM     30  C   UNL     1      22.933   5.765  54.882  1.00  0.00     0.227 A 
ATOM     31  N   UNL     1      22.100   6.784  54.713  1.00  0.00    -0.221 NA
ATOM     32  N   UNL     1      24.075   5.847  55.612  1.00  0.00    -0.213 NA
ATOM     33  C   UNL     1      22.412   7.933  55.343  1.00  0.00     0.117 A 
ATOM     34  C   UNL     1      24.359   7.018  56.193  1.00  0.00     0.077 A 
ATOM     35  C   UNL     1      23.533   8.079  56.066  1.00  0.00     0.049 A 
BRANCH  34  36
ATOM     36  C   UNL     1      25.601   7.046  57.009  1.00  0.00     0.019 A 
ATOM     37  C   UNL     1      25.611   7.559  58.316  1.00  0.00     0.013 A 
ATOM     38  C   UNL     1      26.815   6.566  56.481  1.00  0.00     0.121 A 
ATOM     39  C   UNL     1      26.806   7.583  59.023  1.00  0.00     0.021 A 
ATOM     40  N   UNL     1      27.972   6.593  57.154  1.00  0.00    -0.264 NA
ATOM     41  C   UNL     1      27.948   7.066  58.411  1.00  0.00     0.111 A 
ENDBRANCH  34  36
ENDBRANCH  28  30
ENDBRANCH   6  28
TORSDOF 7
ENDMDL
MODEL 20
REMARK VINA RESULT:   -10.248      3.453     11.164
REMARK INTER + INTRA:         -13.653
REMARK INTER:                 -12.336
REMARK INTRA:                  -1.316
REMARK CONF_INDEPENDENT:        2.088
REMARK UNBOUND:                -1.316
REMARK SMILES Cc1cn(-c2cc(NC(=O)c3ccc(C)c(Nc4nccc(-c5cccnc5)n4)c3)cc(C(F)(F)F)c2)cn1
REMARK SMILES IDX 11 1 12 2 13 3 14 4 15 5 16 6 30 7 9 8 10 9 8 10 7 12 6 13
REMARK SMILES IDX 31 14 5 15 32 16 37 17 4 18 3 19 38 20 2 21 39 22 1 23 33 24
REMARK SMILES IDX 34 25 35 26 36 27 17 28 18 30 19 31 29 32 20 33 22 34 21 35
REMARK SMILES IDX 23 36 24 37 28 38 25 39 27 40 26 41
REMARK H PARENT 8 11 17 29
ROOT
ATOM      1  C   UNL     1      25.616   3.781  51.220  1.00  0.00     0.042 A 
ATOM      2  C   UNL     1      25.377   3.598  49.850  1.00  0.00     0.014 A 
ATOM      3  C   UNL     1      24.452   4.386  49.162  1.00  0.00     0.006 A 
ATOM      4  C   UNL     1      23.673   5.322  49.823  1.00  0.00    -0.027 A 
ATOM      5  C   UNL     1      22.663   6.169  49.062  1.00  0.00     0.046 C 
ATOM      6  C   UNL     1      23.833   5.436  51.204  1.00  0.00     0.045 A 
ATOM      7  C   UNL     1      24.784   4.654  51.871  1.00  0.00     0.040 A 
ENDROOT
BRANCH   1   8
ATOM      8  C   UNL     1      26.477   2.914  52.048  1.00  0.00     0.255 C 
ATOM      9  O   UNL     1      26.059   2.672  53.154  1.00  0.00    -0.269 OA
ATOM     10  N   UNL     1      27.482   2.295  51.410  1.00  0.00    -0.322 N 
ATOM     11  H   UNL     1      27.615   2.523  50.415  1.00  0.00     0.170 HD
BRANCH  10  12
ATOM     12  C   UNL     1      28.361   1.376  51.970  1.00  0.00     0.044 A 
ATOM     13  C   UNL     1      29.565   1.026  51.309  1.00  0.00     0.052 A 
ATOM     14  C   UNL     1      28.017   0.680  53.149  1.00  0.00     0.039 A 
ATOM     15  C   UNL     1      30.459   0.109  51.869  1.00  0.00     0.049 A 
ATOM     16  C   UNL     1      28.940  -0.236  53.729  1.00  0.00     0.060 A 
ATOM     17  C   UNL     1      30.130  -0.530  53.060  1.00  0.00     0.039 A 
BRANCH  15  18
ATOM     18  N   UNL     1      31.673  -0.213  51.244  1.00  0.00    -0.306 N 
ATOM     19  C   UNL     1      31.923  -1.159  50.251  1.00  0.00     0.116 A 
ATOM     20  C   UNL     1      32.883   0.272  51.546  1.00  0.00     0.204 A 
ATOM     21  C   UNL     1      33.253  -1.182  50.016  1.00  0.00     0.056 A 
ATOM     22  N   UNL     1      33.832  -0.256  50.813  1.00  0.00    -0.242 NA
ATOM     23  C   UNL     1      34.005  -2.027  49.017  1.00  0.00     0.068 C 
ENDBRANCH  15  18
BRANCH  16  24
ATOM     24  C   UNL     1      28.575  -0.914  55.010  1.00  0.00     0.416 C 
ATOM     25  F   UNL     1      28.151  -0.090  55.989  1.00  0.00    -0.166 F 
ATOM     26  F   UNL     1      27.525  -1.710  54.847  1.00  0.00    -0.166 F 
ATOM     27  F   UNL     1      29.624  -1.551  55.570  1.00  0.00    -0.166 F 
ENDBRANCH  16  24
ENDBRANCH  10  12
ENDBRANCH   1   8
BRANCH   6  28
ATOM     28  N   UNL     1      23.178   6.482  51.866  1.00  0.00    -0.324 N 
ATOM     29  H   UNL     1      22.968   7.360  51.370  1.00  0.00     0.170 HD
BRANCH  28  30
ATOM     30  C   UNL     1      22.813   6.326  53.205  1.00  0.00     0.227 A 
ATOM     31  N   UNL     1      21.608   6.112  53.719  1.00  0.00    -0.221 NA
ATOM     32  N   UNL     1      23.926   6.511  53.960  1.00  0.00    -0.213 NA
ATOM     33  C   UNL     1      21.527   6.043  55.061  1.00  0.00     0.117 A 
ATOM     34  C   UNL     1      23.790   6.464  55.290  1.00  0.00     0.077 A 
ATOM     35  C   UNL     1      22.588   6.232  55.861  1.00  0.00     0.049 A 
BRANCH  34  36
ATOM     36  C   UNL     1      25.043   6.637  56.071  1.00  0.00     0.019 A 
ATOM     37  C   UNL     1      26.300   6.341  55.519  1.00  0.00     0.013 A 
ATOM     38  C   UNL     1      24.999   7.093  57.403  1.00  0.00     0.121 A 
ATOM     39  C   UNL     1      27.435   6.498  56.304  1.00  0.00     0.021 A 
ATOM     40  N   UNL     1      26.089   7.239  58.167  1.00  0.00    -0.264 NA
ATOM     41  C   UNL     1      27.280   6.973  57.606  1.00  0.00     0.111 A 
ENDBRANCH  34  36
ENDBRANCH  28  30
ENDBRANCH   6  28
TORSDOF 7
ENDMDL
