MODEL 1
REMARK VINA RESULT:   -14.409      0.000      0.000
REMARK INTER + INTRA:         -17.667
REMARK INTER:                 -16.497
REMARK INTRA:                  -1.170
REMARK CONF_INDEPENDENT:        2.088
REMARK UNBOUND:                -1.170
REMARK SMILES Cc1cn(-c2cc(NC(=O)c3ccc(C)c(Nc4nccc(-c5cccnc5)n4)c3)cc(C(F)(F)F)c2)cn1
REMARK SMILES IDX 11 1 12 2 13 3 14 4 15 5 16 6 30 7 9 8 10 9 8 10 7 12 6 13
REMARK SMILES IDX 31 14 5 15 32 16 37 17 4 18 3 19 38 20 2 21 39 22 1 23 33 24
REMARK SMILES IDX 34 25 35 26 36 27 17 28 18 30 19 31 29 32 20 33 22 34 21 35
REMARK SMILES IDX 23 36 24 37 28 38 25 39 27 40 26 41
REMARK H PARENT 8 11 17 29
ROOT
ATOM      1  C   UNL     1      27.978   1.696  53.075  1.00  0.00     0.042 A 
ATOM      2  C   UNL     1      27.677   1.147  54.330  1.00  0.00     0.014 A 
ATOM      3  C   UNL     1      28.388   0.057  54.836  1.00  0.00     0.006 A 
ATOM      4  C   UNL     1      29.362  -0.578  54.083  1.00  0.00    -0.027 A 
ATOM      5  C   UNL     1      30.123  -1.770  54.644  1.00  0.00     0.046 C 
ATOM      6  C   UNL     1      29.593  -0.101  52.793  1.00  0.00     0.045 A 
ATOM      7  C   UNL     1      28.887   1.009  52.314  1.00  0.00     0.040 A 
ENDROOT
BRANCH   1   8
ATOM      8  C   UNL     1      27.199   2.761  52.412  1.00  0.00     0.255 C 
ATOM      9  O   UNL     1      27.513   2.998  51.271  1.00  0.00    -0.269 OA
ATOM     10  N   UNL     1      26.088   3.163  53.045  1.00  0.00    -0.322 N 
ATOM     11  H   UNL     1      25.901   2.749  53.970  1.00  0.00     0.170 HD
BRANCH  10  12
ATOM     12  C   UNL     1      25.166   4.087  52.569  1.00  0.00     0.044 A 
ATOM     13  C   UNL     1      24.238   4.705  53.443  1.00  0.00     0.052 A 
ATOM     14  C   UNL     1      25.052   4.339  51.185  1.00  0.00     0.039 A 
ATOM     15  C   UNL     1      23.314   5.643  52.975  1.00  0.00     0.049 A 
ATOM     16  C   UNL     1      24.125   5.311  50.713  1.00  0.00     0.060 A 
ATOM     17  C   UNL     1      23.249   5.920  51.614  1.00  0.00     0.039 A 
BRANCH  15  18
ATOM     18  N   UNL     1      22.419   6.293  53.840  1.00  0.00    -0.306 N 
ATOM     19  C   UNL     1      22.181   6.056  55.192  1.00  0.00     0.116 A 
ATOM     20  C   UNL     1      21.526   7.233  53.509  1.00  0.00     0.204 A 
ATOM     21  C   UNL     1      21.174   6.864  55.591  1.00  0.00     0.056 A 
ATOM     22  N   UNL     1      20.800   7.615  54.531  1.00  0.00    -0.242 NA
ATOM     23  C   UNL     1      20.572   6.986  56.970  1.00  0.00     0.068 C 
ENDBRANCH  15  18
BRANCH  16  24
ATOM     24  C   UNL     1      24.068   5.603  49.248  1.00  0.00     0.416 C 
ATOM     25  F   UNL     1      24.877   6.597  48.833  1.00  0.00    -0.166 F 
ATOM     26  F   UNL     1      24.513   4.572  48.539  1.00  0.00    -0.166 F 
ATOM     27  F   UNL     1      22.844   6.010  48.853  1.00  0.00    -0.166 F 
ENDBRANCH  16  24
ENDBRANCH  10  12
ENDBRANCH   1   8
BRANCH   6  28
ATOM     28  N   UNL     1      30.680  -0.619  52.076  1.00  0.00    -0.324 N 
ATOM     29  H   UNL     1      30.551  -1.425  51.449  1.00  0.00     0.170 HD
BRANCH  28  30
ATOM     30  C   UNL     1      31.939  -0.033  52.220  1.00  0.00     0.227 A 
ATOM     31  N   UNL     1      32.318   0.934  53.045  1.00  0.00    -0.221 NA
ATOM     32  N   UNL     1      32.756  -0.577  51.280  1.00  0.00    -0.213 NA
ATOM     33  C   UNL     1      33.596   1.348  52.946  1.00  0.00     0.117 A 
ATOM     34  C   UNL     1      34.007  -0.111  51.199  1.00  0.00     0.077 A 
ATOM     35  C   UNL     1      34.445   0.860  52.029  1.00  0.00     0.049 A 
BRANCH  34  36
ATOM     36  C   UNL     1      34.870  -0.762  50.180  1.00  0.00     0.019 A 
ATOM     37  C   UNL     1      36.201  -0.361  49.978  1.00  0.00     0.013 A 
ATOM     38  C   UNL     1      34.365  -1.799  49.372  1.00  0.00     0.121 A 
ATOM     39  C   UNL     1      36.953  -0.989  48.993  1.00  0.00     0.021 A 
ATOM     40  N   UNL     1      35.082  -2.403  48.416  1.00  0.00    -0.264 NA
ATOM     41  C   UNL     1      36.360  -2.017  48.261  1.00  0.00     0.111 A 
ENDBRANCH  34  36
ENDBRANCH  28  30
ENDBRANCH   6  28
TORSDOF 7
ENDMDL
MODEL 2
REMARK VINA RESULT:   -14.157      1.187      1.679
REMARK INTER + INTRA:         -17.486
REMARK INTER:                 -16.245
REMARK INTRA:                  -1.241
REMARK CONF_INDEPENDENT:        2.088
REMARK UNBOUND:                -1.241
REMARK SMILES Cc1cn(-c2cc(NC(=O)c3ccc(C)c(Nc4nccc(-c5cccnc5)n4)c3)cc(C(F)(F)F)c2)cn1
REMARK SMILES IDX 11 1 12 2 13 3 14 4 15 5 16 6 30 7 9 8 10 9 8 10 7 12 6 13
REMARK SMILES IDX 31 14 5 15 32 16 37 17 4 18 3 19 38 20 2 21 39 22 1 23 33 24
REMARK SMILES IDX 34 25 35 26 36 27 17 28 18 30 19 31 29 32 20 33 22 34 21 35
REMARK SMILES IDX 23 36 24 37 28 38 25 39 27 40 26 41
REMARK H PARENT 8 11 17 29
ROOT
ATOM      1  C   UNL     1      27.964   1.719  52.963  1.00  0.00     0.042 A 
ATOM      2  C   UNL     1      27.472   1.268  54.197  1.00  0.00     0.014 A 
ATOM      3  C   UNL     1      28.051   0.183  54.858  1.00  0.00     0.006 A 
ATOM      4  C   UNL     1      29.080  -0.543  54.281  1.00  0.00    -0.027 A 
ATOM      5  C   UNL     1      29.696  -1.729  55.010  1.00  0.00     0.046 C 
ATOM      6  C   UNL     1      29.504  -0.164  53.009  1.00  0.00     0.045 A 
ATOM      7  C   UNL     1      28.928   0.943  52.373  1.00  0.00     0.040 A 
ENDROOT
BRANCH   1   8
ATOM      8  C   UNL     1      27.338   2.772  52.139  1.00  0.00     0.255 C 
ATOM      9  O   UNL     1      28.030   3.222  51.259  1.00  0.00    -0.269 OA
ATOM     10  N   UNL     1      26.014   2.931  52.289  1.00  0.00    -0.322 N 
ATOM     11  H   UNL     1      25.553   2.358  53.009  1.00  0.00     0.170 HD
BRANCH  10  12
ATOM     12  C   UNL     1      25.210   3.799  51.561  1.00  0.00     0.044 A 
ATOM     13  C   UNL     1      24.482   4.829  52.207  1.00  0.00     0.052 A 
ATOM     14  C   UNL     1      25.004   3.598  50.179  1.00  0.00     0.039 A 
ATOM     15  C   UNL     1      23.677   5.713  51.482  1.00  0.00     0.049 A 
ATOM     16  C   UNL     1      24.202   4.513  49.439  1.00  0.00     0.060 A 
ATOM     17  C   UNL     1      23.526   5.534  50.111  1.00  0.00     0.039 A 
BRANCH  15  18
ATOM     18  N   UNL     1      22.986   6.762  52.106  1.00  0.00    -0.306 N 
ATOM     19  C   UNL     1      22.960   8.115  51.772  1.00  0.00     0.116 A 
ATOM     20  C   UNL     1      22.266   6.689  53.232  1.00  0.00     0.204 A 
ATOM     21  C   UNL     1      22.229   8.766  52.703  1.00  0.00     0.056 A 
ATOM     22  N   UNL     1      21.777   7.851  53.590  1.00  0.00    -0.242 NA
ATOM     23  C   UNL     1      21.899  10.237  52.763  1.00  0.00     0.068 C 
ENDBRANCH  15  18
BRANCH  16  24
ATOM     24  C   UNL     1      24.050   4.312  47.966  1.00  0.00     0.416 C 
ATOM     25  F   UNL     1      22.779   4.315  47.518  1.00  0.00    -0.166 F 
ATOM     26  F   UNL     1      24.582   5.323  47.289  1.00  0.00    -0.166 F 
ATOM     27  F   UNL     1      24.523   3.115  47.560  1.00  0.00    -0.166 F 
ENDBRANCH  16  24
ENDBRANCH  10  12
ENDBRANCH   1   8
BRANCH   6  28
ATOM     28  N   UNL     1      30.646  -0.777  52.476  1.00  0.00    -0.324 N 
ATOM     29  H   UNL     1      30.582  -1.711  52.047  1.00  0.00     0.170 HD
BRANCH  28  30
ATOM     30  C   UNL     1      31.872  -0.111  52.532  1.00  0.00     0.227 A 
ATOM     31  N   UNL     1      32.241   0.890  53.322  1.00  0.00    -0.221 NA
ATOM     32  N   UNL     1      32.660  -0.615  51.548  1.00  0.00    -0.213 NA
ATOM     33  C   UNL     1      33.480   1.382  53.137  1.00  0.00     0.117 A 
ATOM     34  C   UNL     1      33.871  -0.071  51.381  1.00  0.00     0.077 A 
ATOM     35  C   UNL     1      34.299   0.937  52.171  1.00  0.00     0.049 A 
BRANCH  34  36
ATOM     36  C   UNL     1      34.707  -0.681  50.314  1.00  0.00     0.019 A 
ATOM     37  C   UNL     1      35.947  -0.133  49.948  1.00  0.00     0.013 A 
ATOM     38  C   UNL     1      34.264  -1.827  49.625  1.00  0.00     0.121 A 
ATOM     39  C   UNL     1      36.674  -0.731  48.926  1.00  0.00     0.021 A 
ATOM     40  N   UNL     1      34.957  -2.403  48.634  1.00  0.00    -0.264 NA
ATOM     41  C   UNL     1      36.151  -1.874  48.322  1.00  0.00     0.111 A 
ENDBRANCH  34  36
ENDBRANCH  28  30
ENDBRANCH   6  28
TORSDOF 7
ENDMDL
MODEL 3
REMARK VINA RESULT:   -13.104      2.249      3.700
REMARK INTER + INTRA:         -16.344
REMARK INTER:                 -15.193
REMARK INTRA:                  -1.152
REMARK CONF_INDEPENDENT:        2.088
REMARK UNBOUND:                -1.152
REMARK SMILES Cc1cn(-c2cc(NC(=O)c3ccc(C)c(Nc4nccc(-c5cccnc5)n4)c3)cc(C(F)(F)F)c2)cn1
REMARK SMILES IDX 11 1 12 2 13 3 14 4 15 5 16 6 30 7 9 8 10 9 8 10 7 12 6 13
REMARK SMILES IDX 31 14 5 15 32 16 37 17 4 18 3 19 38 20 2 21 39 22 1 23 33 24
REMARK SMILES IDX 34 25 35 26 36 27 17 28 18 30 19 31 29 32 20 33 22 34 21 35
REMARK SMILES IDX 23 36 24 37 28 38 25 39 27 40 26 41
REMARK H PARENT 8 11 17 29
ROOT
ATOM      1  C   UNL     1      28.164   1.130  53.226  1.00  0.00     0.042 A 
ATOM      2  C   UNL     1      28.018   0.635  54.531  1.00  0.00     0.014 A 
ATOM      3  C   UNL     1      28.884  -0.331  55.043  1.00  0.00     0.006 A 
ATOM      4  C   UNL     1      29.872  -0.901  54.255  1.00  0.00    -0.027 A 
ATOM      5  C   UNL     1      30.805  -1.959  54.825  1.00  0.00     0.046 C 
ATOM      6  C   UNL     1      29.956  -0.489  52.926  1.00  0.00     0.045 A 
ATOM      7  C   UNL     1      29.093   0.500  52.438  1.00  0.00     0.040 A 
ENDROOT
BRANCH   1   8
ATOM      8  C   UNL     1      27.221   2.053  52.563  1.00  0.00     0.255 C 
ATOM      9  O   UNL     1      27.209   2.003  51.358  1.00  0.00    -0.269 OA
ATOM     10  N   UNL     1      26.320   2.650  53.358  1.00  0.00    -0.322 N 
ATOM     11  H   UNL     1      26.398   2.471  54.369  1.00  0.00     0.170 HD
BRANCH  10  12
ATOM     12  C   UNL     1      25.293   3.487  52.942  1.00  0.00     0.044 A 
ATOM     13  C   UNL     1      25.120   3.800  51.571  1.00  0.00     0.052 A 
ATOM     14  C   UNL     1      24.472   4.141  53.887  1.00  0.00     0.039 A 
ATOM     15  C   UNL     1      24.083   4.633  51.141  1.00  0.00     0.049 A 
ATOM     16  C   UNL     1      23.403   4.972  53.446  1.00  0.00     0.060 A 
ATOM     17  C   UNL     1      23.250   5.229  52.082  1.00  0.00     0.039 A 
BRANCH  15  18
ATOM     18  N   UNL     1      23.878   4.915  49.782  1.00  0.00    -0.306 N 
ATOM     19  C   UNL     1      23.847   6.151  49.140  1.00  0.00     0.116 A 
ATOM     20  C   UNL     1      23.572   4.038  48.819  1.00  0.00     0.204 A 
ATOM     21  C   UNL     1      23.533   5.945  47.842  1.00  0.00     0.056 A 
ATOM     22  N   UNL     1      23.397   4.613  47.655  1.00  0.00    -0.242 NA
ATOM     23  C   UNL     1      23.399   6.972  46.744  1.00  0.00     0.068 C 
ENDBRANCH  15  18
BRANCH  16  24
ATOM     24  C   UNL     1      22.512   5.603  54.466  1.00  0.00     0.416 C 
ATOM     25  F   UNL     1      21.835   4.737  55.246  1.00  0.00    -0.166 F 
ATOM     26  F   UNL     1      23.219   6.283  55.361  1.00  0.00    -0.166 F 
ATOM     27  F   UNL     1      21.537   6.348  53.905  1.00  0.00    -0.166 F 
ENDBRANCH  16  24
ENDBRANCH  10  12
ENDBRANCH   1   8
BRANCH   6  28
ATOM     28  N   UNL     1      31.043  -0.928  52.160  1.00  0.00    -0.324 N 
ATOM     29  H   UNL     1      30.944  -1.742  51.537  1.00  0.00     0.170 HD
BRANCH  28  30
ATOM     30  C   UNL     1      32.261  -0.252  52.246  1.00  0.00     0.227 A 
ATOM     31  N   UNL     1      32.590   0.777  53.018  1.00  0.00    -0.221 NA
ATOM     32  N   UNL     1      33.094  -0.782  51.313  1.00  0.00    -0.213 NA
ATOM     33  C   UNL     1      33.834   1.272  52.869  1.00  0.00     0.117 A 
ATOM     34  C   UNL     1      34.308  -0.236  51.181  1.00  0.00     0.077 A 
ATOM     35  C   UNL     1      34.696   0.801  51.955  1.00  0.00     0.049 A 
BRANCH  34  36
ATOM     36  C   UNL     1      35.193  -0.874  50.171  1.00  0.00     0.019 A 
ATOM     37  C   UNL     1      36.556  -0.551  50.079  1.00  0.00     0.013 A 
ATOM     38  C   UNL     1      34.676  -1.818  49.262  1.00  0.00     0.121 A 
ATOM     39  C   UNL     1      37.329  -1.161  49.099  1.00  0.00     0.021 A 
ATOM     40  N   UNL     1      35.414  -2.403  48.310  1.00  0.00    -0.264 NA
ATOM     41  C   UNL     1      36.721  -2.095  48.261  1.00  0.00     0.111 A 
ENDBRANCH  34  36
ENDBRANCH  28  30
ENDBRANCH   6  28
TORSDOF 7
ENDMDL
MODEL 4
REMARK VINA RESULT:   -11.565      4.117     11.219
REMARK INTER + INTRA:         -14.837
REMARK INTER:                 -13.654
REMARK INTRA:                  -1.184
REMARK CONF_INDEPENDENT:        2.088
REMARK UNBOUND:                -1.184
REMARK SMILES Cc1cn(-c2cc(NC(=O)c3ccc(C)c(Nc4nccc(-c5cccnc5)n4)c3)cc(C(F)(F)F)c2)cn1
REMARK SMILES IDX 11 1 12 2 13 3 14 4 15 5 16 6 30 7 9 8 10 9 8 10 7 12 6 13
REMARK SMILES IDX 31 14 5 15 32 16 37 17 4 18 3 19 38 20 2 21 39 22 1 23 33 24
REMARK SMILES IDX 34 25 35 26 36 27 17 28 18 30 19 31 29 32 20 33 22 34 21 35
REMARK SMILES IDX 23 36 24 37 28 38 25 39 27 40 26 41
REMARK H PARENT 8 11 17 29
ROOT
ATOM      1  C   UNL     1      25.834   3.893  52.058  1.00  0.00     0.042 A 
ATOM      2  C   UNL     1      25.242   4.408  50.895  1.00  0.00     0.014 A 
ATOM      3  C   UNL     1      24.133   5.254  50.958  1.00  0.00     0.006 A 
ATOM      4  C   UNL     1      23.523   5.550  52.166  1.00  0.00    -0.027 A 
ATOM      5  C   UNL     1      22.310   6.467  52.219  1.00  0.00     0.046 C 
ATOM      6  C   UNL     1      24.044   4.957  53.316  1.00  0.00     0.045 A 
ATOM      7  C   UNL     1      25.173   4.132  53.234  1.00  0.00     0.040 A 
ENDROOT
BRANCH   1   8
ATOM      8  C   UNL     1      26.924   2.897  52.079  1.00  0.00     0.255 C 
ATOM      9  O   UNL     1      27.597   2.844  51.079  1.00  0.00    -0.269 OA
ATOM     10  N   UNL     1      27.202   2.349  53.272  1.00  0.00    -0.322 N 
ATOM     11  H   UNL     1      26.595   2.614  54.061  1.00  0.00     0.170 HD
BRANCH  10  12
ATOM     12  C   UNL     1      28.233   1.458  53.540  1.00  0.00     0.044 A 
ATOM     13  C   UNL     1      29.541   1.689  53.046  1.00  0.00     0.052 A 
ATOM     14  C   UNL     1      27.975   0.241  54.208  1.00  0.00     0.039 A 
ATOM     15  C   UNL     1      30.587   0.803  53.318  1.00  0.00     0.049 A 
ATOM     16  C   UNL     1      29.046  -0.649  54.504  1.00  0.00     0.060 A 
ATOM     17  C   UNL     1      30.327  -0.368  54.023  1.00  0.00     0.039 A 
BRANCH  15  18
ATOM     18  N   UNL     1      31.894   1.044  52.869  1.00  0.00    -0.306 N 
ATOM     19  C   UNL     1      32.531   0.560  51.728  1.00  0.00     0.116 A 
ATOM     20  C   UNL     1      32.847   1.732  53.509  1.00  0.00     0.204 A 
ATOM     21  C   UNL     1      33.813   0.985  51.748  1.00  0.00     0.056 A 
ATOM     22  N   UNL     1      33.982   1.744  52.854  1.00  0.00    -0.242 NA
ATOM     23  C   UNL     1      34.891   0.736  50.721  1.00  0.00     0.068 C 
ENDBRANCH  15  18
BRANCH  16  24
ATOM     24  C   UNL     1      28.754  -1.901  55.266  1.00  0.00     0.416 C 
ATOM     25  F   UNL     1      27.888  -2.743  54.668  1.00  0.00    -0.166 F 
ATOM     26  F   UNL     1      29.840  -2.657  55.375  1.00  0.00    -0.166 F 
ATOM     27  F   UNL     1      28.177  -1.653  56.459  1.00  0.00    -0.166 F 
ENDBRANCH  16  24
ENDBRANCH  10  12
ENDBRANCH   1   8
BRANCH   6  28
ATOM     28  N   UNL     1      23.549   5.367  54.560  1.00  0.00    -0.324 N 
ATOM     29  H   UNL     1      22.833   4.807  55.044  1.00  0.00     0.170 HD
BRANCH  28  30
ATOM     30  C   UNL     1      24.034   6.542  55.139  1.00  0.00     0.227 A 
ATOM     31  N   UNL     1      24.093   7.762  54.621  1.00  0.00    -0.221 NA
ATOM     32  N   UNL     1      24.538   6.222  56.358  1.00  0.00    -0.213 NA
ATOM     33  C   UNL     1      24.654   8.718  55.386  1.00  0.00     0.117 A 
ATOM     34  C   UNL     1      25.115   7.199  57.068  1.00  0.00     0.077 A 
ATOM     35  C   UNL     1      25.184   8.461  56.592  1.00  0.00     0.049 A 
BRANCH  34  36
ATOM     36  C   UNL     1      25.620   6.806  58.409  1.00  0.00     0.019 A 
ATOM     37  C   UNL     1      24.753   6.636  59.501  1.00  0.00     0.013 A 
ATOM     38  C   UNL     1      26.998   6.606  58.625  1.00  0.00     0.121 A 
ATOM     39  C   UNL     1      25.285   6.293  60.738  1.00  0.00     0.021 A 
ATOM     40  N   UNL     1      27.517   6.283  59.816  1.00  0.00    -0.264 NA
ATOM     41  C   UNL     1      26.662   6.102  60.837  1.00  0.00     0.111 A 
ENDBRANCH  34  36
ENDBRANCH  28  30
ENDBRANCH   6  28
TORSDOF 7
ENDMDL
MODEL 5
REMARK VINA RESULT:   -11.517      3.751     11.805
REMARK INTER + INTRA:         -14.773
REMARK INTER:                 -13.605
REMARK INTRA:                  -1.168
REMARK CONF_INDEPENDENT:        2.088
REMARK UNBOUND:                -1.168
REMARK SMILES Cc1cn(-c2cc(NC(=O)c3ccc(C)c(Nc4nccc(-c5cccnc5)n4)c3)cc(C(F)(F)F)c2)cn1
REMARK SMILES IDX 11 1 12 2 13 3 14 4 15 5 16 6 30 7 9 8 10 9 8 10 7 12 6 13
REMARK SMILES IDX 31 14 5 15 32 16 37 17 4 18 3 19 38 20 2 21 39 22 1 23 33 24
REMARK SMILES IDX 34 25 35 26 36 27 17 28 18 30 19 31 29 32 20 33 22 34 21 35
REMARK SMILES IDX 23 36 24 37 28 38 25 39 27 40 26 41
REMARK H PARENT 8 11 17 29
ROOT
ATOM      1  C   UNL     1      25.934   3.799  51.882  1.00  0.00     0.042 A 
ATOM      2  C   UNL     1      25.294   4.216  50.706  1.00  0.00     0.014 A 
ATOM      3  C   UNL     1      24.160   5.030  50.744  1.00  0.00     0.006 A 
ATOM      4  C   UNL     1      23.575   5.390  51.947  1.00  0.00    -0.027 A 
ATOM      5  C   UNL     1      22.334   6.272  51.973  1.00  0.00     0.046 C 
ATOM      6  C   UNL     1      24.146   4.893  53.118  1.00  0.00     0.045 A 
ATOM      7  C   UNL     1      25.298   4.099  53.059  1.00  0.00     0.040 A 
ENDROOT
BRANCH   1   8
ATOM      8  C   UNL     1      27.055   2.841  51.938  1.00  0.00     0.255 C 
ATOM      9  O   UNL     1      27.791   2.847  50.982  1.00  0.00    -0.269 OA
ATOM     10  N   UNL     1      27.278   2.260  53.127  1.00  0.00    -0.322 N 
ATOM     11  H   UNL     1      26.615   2.476  53.885  1.00  0.00     0.170 HD
BRANCH  10  12
ATOM     12  C   UNL     1      28.322   1.395  53.429  1.00  0.00     0.044 A 
ATOM     13  C   UNL     1      29.633   1.641  52.949  1.00  0.00     0.052 A 
ATOM     14  C   UNL     1      28.077   0.188  54.120  1.00  0.00     0.039 A 
ATOM     15  C   UNL     1      30.691   0.781  53.256  1.00  0.00     0.049 A 
ATOM     16  C   UNL     1      29.161  -0.674  54.451  1.00  0.00     0.060 A 
ATOM     17  C   UNL     1      30.443  -0.379  53.983  1.00  0.00     0.039 A 
BRANCH  15  18
ATOM     18  N   UNL     1      32.000   1.038  52.821  1.00  0.00    -0.306 N 
ATOM     19  C   UNL     1      32.649   0.576  51.678  1.00  0.00     0.116 A 
ATOM     20  C   UNL     1      32.943   1.722  53.479  1.00  0.00     0.204 A 
ATOM     21  C   UNL     1      33.928   1.009  51.714  1.00  0.00     0.056 A 
ATOM     22  N   UNL     1      34.083   1.752  52.833  1.00  0.00    -0.242 NA
ATOM     23  C   UNL     1      35.015   0.783  50.692  1.00  0.00     0.068 C 
ENDBRANCH  15  18
BRANCH  16  24
ATOM     24  C   UNL     1      28.881  -1.915  55.235  1.00  0.00     0.416 C 
ATOM     25  F   UNL     1      28.047  -2.790  54.640  1.00  0.00    -0.166 F 
ATOM     26  F   UNL     1      29.982  -2.643  55.385  1.00  0.00    -0.166 F 
ATOM     27  F   UNL     1      28.274  -1.653  56.411  1.00  0.00    -0.166 F 
ENDBRANCH  16  24
ENDBRANCH  10  12
ENDBRANCH   1   8
BRANCH   6  28
ATOM     28  N   UNL     1      23.672   5.373  54.346  1.00  0.00    -0.324 N 
ATOM     29  H   UNL     1      22.708   5.171  54.645  1.00  0.00     0.170 HD
BRANCH  28  30
ATOM     30  C   UNL     1      24.519   6.127  55.161  1.00  0.00     0.227 A 
ATOM     31  N   UNL     1      25.814   6.374  55.013  1.00  0.00    -0.221 NA
ATOM     32  N   UNL     1      23.798   6.535  56.237  1.00  0.00    -0.213 NA
ATOM     33  C   UNL     1      26.405   7.103  55.979  1.00  0.00     0.117 A 
ATOM     34  C   UNL     1      24.436   7.229  57.186  1.00  0.00     0.077 A 
ATOM     35  C   UNL     1      25.750   7.521  57.073  1.00  0.00     0.049 A 
BRANCH  34  36
ATOM     36  C   UNL     1      23.596   7.682  58.325  1.00  0.00     0.019 A 
ATOM     37  C   UNL     1      22.271   7.245  58.482  1.00  0.00     0.013 A 
ATOM     38  C   UNL     1      24.109   8.584  59.278  1.00  0.00     0.121 A 
ATOM     39  C   UNL     1      21.525   7.722  59.552  1.00  0.00     0.021 A 
ATOM     40  N   UNL     1      23.392   9.053  60.307  1.00  0.00    -0.264 NA
ATOM     41  C   UNL     1      22.136   8.599  60.447  1.00  0.00     0.111 A 
ENDBRANCH  34  36
ENDBRANCH  28  30
ENDBRANCH   6  28
TORSDOF 7
ENDMDL
MODEL 6
REMARK VINA RESULT:   -11.467      2.152      3.163
REMARK INTER + INTRA:         -14.891
REMARK INTER:                 -13.555
REMARK INTRA:                  -1.336
REMARK CONF_INDEPENDENT:        2.088
REMARK UNBOUND:                -1.336
REMARK SMILES Cc1cn(-c2cc(NC(=O)c3ccc(C)c(Nc4nccc(-c5cccnc5)n4)c3)cc(C(F)(F)F)c2)cn1
REMARK SMILES IDX 11 1 12 2 13 3 14 4 15 5 16 6 30 7 9 8 10 9 8 10 7 12 6 13
REMARK SMILES IDX 31 14 5 15 32 16 37 17 4 18 3 19 38 20 2 21 39 22 1 23 33 24
REMARK SMILES IDX 34 25 35 26 36 27 17 28 18 30 19 31 29 32 20 33 22 34 21 35
REMARK SMILES IDX 23 36 24 37 28 38 25 39 27 40 26 41
REMARK H PARENT 8 11 17 29
ROOT
ATOM      1  C   UNL     1      26.999   2.402  52.409  1.00  0.00     0.042 A 
ATOM      2  C   UNL     1      27.149   1.028  52.166  1.00  0.00     0.014 A 
ATOM      3  C   UNL     1      27.923   0.222  53.002  1.00  0.00     0.006 A 
ATOM      4  C   UNL     1      28.641   0.761  54.057  1.00  0.00    -0.027 A 
ATOM      5  C   UNL     1      29.487  -0.129  54.956  1.00  0.00     0.046 C 
ATOM      6  C   UNL     1      28.579   2.142  54.242  1.00  0.00     0.045 A 
ATOM      7  C   UNL     1      27.776   2.930  53.407  1.00  0.00     0.040 A 
ENDROOT
BRANCH   1   8
ATOM      8  C   UNL     1      26.308   3.347  51.511  1.00  0.00     0.255 C 
ATOM      9  O   UNL     1      26.556   3.222  50.336  1.00  0.00    -0.269 OA
ATOM     10  N   UNL     1      25.309   4.058  52.055  1.00  0.00    -0.322 N 
ATOM     11  H   UNL     1      25.147   3.939  53.065  1.00  0.00     0.170 HD
BRANCH  10  12
ATOM     12  C   UNL     1      24.473   4.940  51.382  1.00  0.00     0.044 A 
ATOM     13  C   UNL     1      23.837   6.005  52.066  1.00  0.00     0.052 A 
ATOM     14  C   UNL     1      24.144   4.723  50.026  1.00  0.00     0.039 A 
ATOM     15  C   UNL     1      23.002   6.903  51.395  1.00  0.00     0.049 A 
ATOM     16  C   UNL     1      23.312   5.652  49.338  1.00  0.00     0.060 A 
ATOM     17  C   UNL     1      22.729   6.706  50.045  1.00  0.00     0.039 A 
BRANCH  15  18
ATOM     18  N   UNL     1      22.401   7.986  52.054  1.00  0.00    -0.306 N 
ATOM     19  C   UNL     1      21.576   7.978  53.178  1.00  0.00     0.116 A 
ATOM     20  C   UNL     1      22.424   9.268  51.674  1.00  0.00     0.204 A 
ATOM     21  C   UNL     1      21.162   9.243  53.406  1.00  0.00     0.056 A 
ATOM     22  N   UNL     1      21.729  10.041  52.473  1.00  0.00    -0.242 NA
ATOM     23  C   UNL     1      20.272   9.743  54.518  1.00  0.00     0.068 C 
ENDBRANCH  15  18
BRANCH  16  24
ATOM     24  C   UNL     1      23.029   5.431  47.888  1.00  0.00     0.416 C 
ATOM     25  F   UNL     1      23.552   6.355  47.058  1.00  0.00    -0.166 F 
ATOM     26  F   UNL     1      23.603   4.315  47.454  1.00  0.00    -0.166 F 
ATOM     27  F   UNL     1      21.709   5.473  47.611  1.00  0.00    -0.166 F 
ENDBRANCH  16  24
ENDBRANCH  10  12
ENDBRANCH   1   8
BRANCH   6  28
ATOM     28  N   UNL     1      29.161   2.687  55.393  1.00  0.00    -0.324 N 
ATOM     29  H   UNL     1      28.585   2.881  56.224  1.00  0.00     0.170 HD
BRANCH  28  30
ATOM     30  C   UNL     1      30.529   2.965  55.405  1.00  0.00     0.227 A 
ATOM     31  N   UNL     1      31.190   3.866  56.121  1.00  0.00    -0.221 NA
ATOM     32  N   UNL     1      31.116   2.183  54.462  1.00  0.00    -0.213 NA
ATOM     33  C   UNL     1      32.516   3.958  55.905  1.00  0.00     0.117 A 
ATOM     34  C   UNL     1      32.431   2.333  54.261  1.00  0.00     0.077 A 
ATOM     35  C   UNL     1      33.150   3.224  54.977  1.00  0.00     0.049 A 
BRANCH  34  36
ATOM     36  C   UNL     1      33.032   1.430  53.245  1.00  0.00     0.019 A 
ATOM     37  C   UNL     1      32.236   0.627  52.412  1.00  0.00     0.013 A 
ATOM     38  C   UNL     1      34.430   1.347  53.100  1.00  0.00     0.121 A 
ATOM     39  C   UNL     1      32.854  -0.217  51.498  1.00  0.00     0.021 A 
ATOM     40  N   UNL     1      35.032   0.530  52.225  1.00  0.00    -0.264 NA
ATOM     41  C   UNL     1      34.246  -0.209  51.424  1.00  0.00     0.111 A 
ENDBRANCH  34  36
ENDBRANCH  28  30
ENDBRANCH   6  28
TORSDOF 7
ENDMDL
MODEL 7
REMARK VINA RESULT:   -11.131      3.658     12.063
REMARK INTER + INTRA:         -14.420
REMARK INTER:                 -13.219
REMARK INTRA:                  -1.200
REMARK CONF_INDEPENDENT:        2.088
REMARK UNBOUND:                -1.200
REMARK SMILES Cc1cn(-c2cc(NC(=O)c3ccc(C)c(Nc4nccc(-c5cccnc5)n4)c3)cc(C(F)(F)F)c2)cn1
REMARK SMILES IDX 11 1 12 2 13 3 14 4 15 5 16 6 30 7 9 8 10 9 8 10 7 12 6 13
REMARK SMILES IDX 31 14 5 15 32 16 37 17 4 18 3 19 38 20 2 21 39 22 1 23 33 24
REMARK SMILES IDX 34 25 35 26 36 27 17 28 18 30 19 31 29 32 20 33 22 34 21 35
REMARK SMILES IDX 23 36 24 37 28 38 25 39 27 40 26 41
REMARK H PARENT 8 11 17 29
ROOT
ATOM      1  C   UNL     1      26.126   3.457  51.579  1.00  0.00     0.042 A 
ATOM      2  C   UNL     1      25.543   3.891  50.379  1.00  0.00     0.014 A 
ATOM      3  C   UNL     1      24.325   4.572  50.367  1.00  0.00     0.006 A 
ATOM      4  C   UNL     1      23.603   4.773  51.532  1.00  0.00    -0.027 A 
ATOM      5  C   UNL     1      22.272   5.511  51.503  1.00  0.00     0.046 C 
ATOM      6  C   UNL     1      24.127   4.254  52.715  1.00  0.00     0.045 A 
ATOM      7  C   UNL     1      25.363   3.595  52.710  1.00  0.00     0.040 A 
ENDROOT
BRANCH   1   8
ATOM      8  C   UNL     1      27.341   2.624  51.674  1.00  0.00     0.255 C 
ATOM      9  O   UNL     1      28.209   2.881  50.876  1.00  0.00    -0.269 OA
ATOM     10  N   UNL     1      27.451   1.862  52.773  1.00  0.00    -0.322 N 
ATOM     11  H   UNL     1      26.656   1.866  53.427  1.00  0.00     0.170 HD
BRANCH  10  12
ATOM     12  C   UNL     1      28.540   1.067  53.108  1.00  0.00     0.044 A 
ATOM     13  C   UNL     1      29.836   1.364  52.618  1.00  0.00     0.052 A 
ATOM     14  C   UNL     1      28.360  -0.123  53.846  1.00  0.00     0.039 A 
ATOM     15  C   UNL     1      30.939   0.576  52.959  1.00  0.00     0.049 A 
ATOM     16  C   UNL     1      29.488  -0.912  54.211  1.00  0.00     0.060 A 
ATOM     17  C   UNL     1      30.753  -0.566  53.731  1.00  0.00     0.039 A 
BRANCH  15  18
ATOM     18  N   UNL     1      32.233   0.886  52.513  1.00  0.00    -0.306 N 
ATOM     19  C   UNL     1      32.914   0.402  51.398  1.00  0.00     0.116 A 
ATOM     20  C   UNL     1      33.131   1.660  53.135  1.00  0.00     0.204 A 
ATOM     21  C   UNL     1      34.165   0.912  51.413  1.00  0.00     0.056 A 
ATOM     22  N   UNL     1      34.270   1.722  52.490  1.00  0.00    -0.242 NA
ATOM     23  C   UNL     1      35.269   0.695  50.407  1.00  0.00     0.068 C 
ENDBRANCH  15  18
BRANCH  16  24
ATOM     24  C   UNL     1      29.275  -2.134  55.043  1.00  0.00     0.416 C 
ATOM     25  F   UNL     1      28.655  -3.152  54.413  1.00  0.00    -0.166 F 
ATOM     26  F   UNL     1      30.433  -2.687  55.385  1.00  0.00    -0.166 F 
ATOM     27  F   UNL     1      28.483  -1.897  56.109  1.00  0.00    -0.166 F 
ENDBRANCH  16  24
ENDBRANCH  10  12
ENDBRANCH   1   8
BRANCH   6  28
ATOM     28  N   UNL     1      23.501   4.584  53.924  1.00  0.00    -0.324 N 
ATOM     29  H   UNL     1      22.883   3.905  54.391  1.00  0.00     0.170 HD
BRANCH  28  30
ATOM     30  C   UNL     1      23.721   5.841  54.490  1.00  0.00     0.227 A 
ATOM     31  N   UNL     1      24.698   6.230  55.299  1.00  0.00    -0.221 NA
ATOM     32  N   UNL     1      22.683   6.641  54.134  1.00  0.00    -0.213 NA
ATOM     33  C   UNL     1      24.649   7.501  55.740  1.00  0.00     0.117 A 
ATOM     34  C   UNL     1      22.661   7.886  54.624  1.00  0.00     0.077 A 
ATOM     35  C   UNL     1      23.642   8.334  55.436  1.00  0.00     0.049 A 
BRANCH  34  36
ATOM     36  C   UNL     1      21.523   8.732  54.176  1.00  0.00     0.019 A 
ATOM     37  C   UNL     1      20.196   8.414  54.507  1.00  0.00     0.013 A 
ATOM     38  C   UNL     1      21.750   9.877  53.388  1.00  0.00     0.121 A 
ATOM     39  C   UNL     1      19.171   9.227  54.040  1.00  0.00     0.021 A 
ATOM     40  N   UNL     1      20.766  10.660  52.928  1.00  0.00    -0.264 NA
ATOM     41  C   UNL     1      19.508  10.348  53.281  1.00  0.00     0.111 A 
ENDBRANCH  34  36
ENDBRANCH  28  30
ENDBRANCH   6  28
TORSDOF 7
ENDMDL
MODEL 8
REMARK VINA RESULT:   -11.072      4.553      7.952
REMARK INTER + INTRA:         -14.188
REMARK INTER:                 -13.160
REMARK INTRA:                  -1.029
REMARK CONF_INDEPENDENT:        2.088
REMARK UNBOUND:                -1.029
REMARK SMILES Cc1cn(-c2cc(NC(=O)c3ccc(C)c(Nc4nccc(-c5cccnc5)n4)c3)cc(C(F)(F)F)c2)cn1
REMARK SMILES IDX 11 1 12 2 13 3 14 4 15 5 16 6 30 7 9 8 10 9 8 10 7 12 6 13
REMARK SMILES IDX 31 14 5 15 32 16 37 17 4 18 3 19 38 20 2 21 39 22 1 23 33 24
REMARK SMILES IDX 34 25 35 26 36 27 17 28 18 30 19 31 29 32 20 33 22 34 21 35
REMARK SMILES IDX 23 36 24 37 28 38 25 39 27 40 26 41
REMARK H PARENT 8 11 17 29
ROOT
ATOM      1  C   UNL     1      33.933  -0.543  50.724  1.00  0.00     0.042 A 
ATOM      2  C   UNL     1      33.963  -1.804  50.111  1.00  0.00     0.014 A 
ATOM      3  C   UNL     1      34.983  -2.159  49.227  1.00  0.00     0.006 A 
ATOM      4  C   UNL     1      35.961  -1.250  48.856  1.00  0.00    -0.027 A 
ATOM      5  C   UNL     1      37.063  -1.648  47.886  1.00  0.00     0.046 C 
ATOM      6  C   UNL     1      35.878   0.038  49.382  1.00  0.00     0.045 A 
ATOM      7  C   UNL     1      34.860   0.367  50.287  1.00  0.00     0.040 A 
ENDROOT
BRANCH   1   8
ATOM      8  C   UNL     1      32.830  -0.041  51.567  1.00  0.00     0.255 C 
ATOM      9  O   UNL     1      32.936   1.105  51.930  1.00  0.00    -0.269 OA
ATOM     10  N   UNL     1      31.732  -0.810  51.625  1.00  0.00    -0.322 N 
ATOM     11  H   UNL     1      31.770  -1.716  51.136  1.00  0.00     0.170 HD
BRANCH  10  12
ATOM     12  C   UNL     1      30.551  -0.498  52.286  1.00  0.00     0.044 A 
ATOM     13  C   UNL     1      29.771   0.618  51.892  1.00  0.00     0.052 A 
ATOM     14  C   UNL     1      30.163  -1.212  53.440  1.00  0.00     0.039 A 
ATOM     15  C   UNL     1      28.576   0.934  52.544  1.00  0.00     0.049 A 
ATOM     16  C   UNL     1      28.934  -0.902  54.090  1.00  0.00     0.060 A 
ATOM     17  C   UNL     1      28.180   0.188  53.650  1.00  0.00     0.039 A 
BRANCH  15  18
ATOM     18  N   UNL     1      27.775   2.012  52.136  1.00  0.00    -0.306 N 
ATOM     19  C   UNL     1      26.888   2.778  52.889  1.00  0.00     0.116 A 
ATOM     20  C   UNL     1      27.630   2.474  50.888  1.00  0.00     0.204 A 
ATOM     21  C   UNL     1      26.273   3.649  52.059  1.00  0.00     0.056 A 
ATOM     22  N   UNL     1      26.775   3.464  50.817  1.00  0.00    -0.242 NA
ATOM     23  C   UNL     1      25.245   4.698  52.409  1.00  0.00     0.068 C 
ENDBRANCH  15  18
BRANCH  16  24
ATOM     24  C   UNL     1      28.519  -1.714  55.273  1.00  0.00     0.416 C 
ATOM     25  F   UNL     1      27.624  -2.687  55.011  1.00  0.00    -0.166 F 
ATOM     26  F   UNL     1      29.542  -2.405  55.761  1.00  0.00    -0.166 F 
ATOM     27  F   UNL     1      27.904  -0.969  56.216  1.00  0.00    -0.166 F 
ENDBRANCH  16  24
ENDBRANCH  10  12
ENDBRANCH   1   8
BRANCH   6  28
ATOM     28  N   UNL     1      36.940   0.922  49.152  1.00  0.00    -0.324 N 
ATOM     29  H   UNL     1      36.757   1.875  48.807  1.00  0.00     0.170 HD
BRANCH  28  30
ATOM     30  C   UNL     1      38.249   0.501  49.395  1.00  0.00     0.227 A 
ATOM     31  N   UNL     1      38.700  -0.308  50.345  1.00  0.00    -0.221 NA
ATOM     32  N   UNL     1      39.057   1.138  48.509  1.00  0.00    -0.213 NA
ATOM     33  C   UNL     1      40.030  -0.517  50.381  1.00  0.00     0.117 A 
ATOM     34  C   UNL     1      40.375   0.924  48.605  1.00  0.00     0.077 A 
ATOM     35  C   UNL     1      40.881   0.095  49.543  1.00  0.00     0.049 A 
BRANCH  34  36
ATOM     36  C   UNL     1      41.213   1.616  47.592  1.00  0.00     0.019 A 
ATOM     37  C   UNL     1      40.650   2.198  46.444  1.00  0.00     0.013 A 
ATOM     38  C   UNL     1      42.610   1.694  47.752  1.00  0.00     0.121 A 
ATOM     39  C   UNL     1      41.485   2.810  45.519  1.00  0.00     0.021 A 
ATOM     40  N   UNL     1      43.421   2.276  46.859  1.00  0.00    -0.264 NA
ATOM     41  C   UNL     1      42.854   2.846  45.784  1.00  0.00     0.111 A 
ENDBRANCH  34  36
ENDBRANCH  28  30
ENDBRANCH   6  28
TORSDOF 7
ENDMDL
MODEL 9
REMARK VINA RESULT:   -10.982      3.863     11.729
REMARK INTER + INTRA:         -14.195
REMARK INTER:                 -13.070
REMARK INTRA:                  -1.125
REMARK CONF_INDEPENDENT:        2.088
REMARK UNBOUND:                -1.125
REMARK SMILES Cc1cn(-c2cc(NC(=O)c3ccc(C)c(Nc4nccc(-c5cccnc5)n4)c3)cc(C(F)(F)F)c2)cn1
REMARK SMILES IDX 11 1 12 2 13 3 14 4 15 5 16 6 30 7 9 8 10 9 8 10 7 12 6 13
REMARK SMILES IDX 31 14 5 15 32 16 37 17 4 18 3 19 38 20 2 21 39 22 1 23 33 24
REMARK SMILES IDX 34 25 35 26 36 27 17 28 18 30 19 31 29 32 20 33 22 34 21 35
REMARK SMILES IDX 23 36 24 37 28 38 25 39 27 40 26 41
REMARK H PARENT 8 11 17 29
ROOT
ATOM      1  C   UNL     1      25.684   3.577  51.882  1.00  0.00     0.042 A 
ATOM      2  C   UNL     1      24.817   3.449  50.787  1.00  0.00     0.014 A 
ATOM      3  C   UNL     1      23.495   3.892  50.850  1.00  0.00     0.006 A 
ATOM      4  C   UNL     1      22.963   4.400  52.024  1.00  0.00    -0.027 A 
ATOM      5  C   UNL     1      21.517   4.872  52.081  1.00  0.00     0.046 C 
ATOM      6  C   UNL     1      23.790   4.434  53.146  1.00  0.00     0.045 A 
ATOM      7  C   UNL     1      25.121   4.008  53.055  1.00  0.00     0.040 A 
ENDROOT
BRANCH   1   8
ATOM      8  C   UNL     1      27.051   3.024  51.945  1.00  0.00     0.255 C 
ATOM      9  O   UNL     1      27.589   2.849  50.879  1.00  0.00    -0.269 OA
ATOM     10  N   UNL     1      27.631   3.016  53.154  1.00  0.00    -0.322 N 
ATOM     11  H   UNL     1      27.058   3.332  53.950  1.00  0.00     0.170 HD
BRANCH  10  12
ATOM     12  C   UNL     1      28.934   2.621  53.432  1.00  0.00     0.044 A 
ATOM     13  C   UNL     1      29.573   1.625  52.654  1.00  0.00     0.052 A 
ATOM     14  C   UNL     1      29.606   3.116  54.571  1.00  0.00     0.039 A 
ATOM     15  C   UNL     1      30.887   1.229  52.919  1.00  0.00     0.049 A 
ATOM     16  C   UNL     1      30.952   2.727  54.827  1.00  0.00     0.060 A 
ATOM     17  C   UNL     1      31.556   1.764  54.015  1.00  0.00     0.039 A 
BRANCH  15  18
ATOM     18  N   UNL     1      31.543   0.274  52.128  1.00  0.00    -0.306 N 
ATOM     19  C   UNL     1      31.172  -0.240  50.887  1.00  0.00     0.116 A 
ATOM     20  C   UNL     1      32.639  -0.421  52.456  1.00  0.00     0.204 A 
ATOM     21  C   UNL     1      32.060  -1.199  50.545  1.00  0.00     0.056 A 
ATOM     22  N   UNL     1      32.989  -1.274  51.524  1.00  0.00    -0.242 NA
ATOM     23  C   UNL     1      32.091  -2.029  49.284  1.00  0.00     0.068 C 
ENDBRANCH  15  18
BRANCH  16  24
ATOM     24  C   UNL     1      31.661   3.313  56.004  1.00  0.00     0.416 C 
ATOM     25  F   UNL     1      31.078   4.406  56.534  1.00  0.00    -0.166 F 
ATOM     26  F   UNL     1      31.654   2.472  57.032  1.00  0.00    -0.166 F 
ATOM     27  F   UNL     1      32.903   3.739  55.696  1.00  0.00    -0.166 F 
ENDBRANCH  16  24
ENDBRANCH  10  12
ENDBRANCH   1   8
BRANCH   6  28
ATOM     28  N   UNL     1      23.328   5.090  54.294  1.00  0.00    -0.324 N 
ATOM     29  H   UNL     1      22.365   4.939  54.627  1.00  0.00     0.170 HD
BRANCH  28  30
ATOM     30  C   UNL     1      24.184   5.951  54.984  1.00  0.00     0.227 A 
ATOM     31  N   UNL     1      25.433   6.293  54.694  1.00  0.00    -0.221 NA
ATOM     32  N   UNL     1      23.541   6.356  56.110  1.00  0.00    -0.213 NA
ATOM     33  C   UNL     1      26.053   7.116  55.561  1.00  0.00     0.117 A 
ATOM     34  C   UNL     1      24.209   7.148  56.957  1.00  0.00     0.077 A 
ATOM     35  C   UNL     1      25.476   7.537  56.697  1.00  0.00     0.049 A 
BRANCH  34  36
ATOM     36  C   UNL     1      23.450   7.592  58.155  1.00  0.00     0.019 A 
ATOM     37  C   UNL     1      23.940   8.596  59.005  1.00  0.00     0.013 A 
ATOM     38  C   UNL     1      22.215   6.999  58.480  1.00  0.00     0.121 A 
ATOM     39  C   UNL     1      23.199   8.953  60.125  1.00  0.00     0.021 A 
ATOM     40  N   UNL     1      21.500   7.333  59.562  1.00  0.00    -0.264 NA
ATOM     41  C   UNL     1      21.979   8.314  60.343  1.00  0.00     0.111 A 
ENDBRANCH  34  36
ENDBRANCH  28  30
ENDBRANCH   6  28
TORSDOF 7
ENDMDL
MODEL 10
REMARK VINA RESULT:   -10.981      4.216     10.566
REMARK INTER + INTRA:         -14.371
REMARK INTER:                 -13.070
REMARK INTRA:                  -1.301
REMARK CONF_INDEPENDENT:        2.088
REMARK UNBOUND:                -1.301
REMARK SMILES Cc1cn(-c2cc(NC(=O)c3ccc(C)c(Nc4nccc(-c5cccnc5)n4)c3)cc(C(F)(F)F)c2)cn1
REMARK SMILES IDX 11 1 12 2 13 3 14 4 15 5 16 6 30 7 9 8 10 9 8 10 7 12 6 13
REMARK SMILES IDX 31 14 5 15 32 16 37 17 4 18 3 19 38 20 2 21 39 22 1 23 33 24
REMARK SMILES IDX 34 25 35 26 36 27 17 28 18 30 19 31 29 32 20 33 22 34 21 35
REMARK SMILES IDX 23 36 24 37 28 38 25 39 27 40 26 41
REMARK H PARENT 8 11 17 29
ROOT
ATOM      1  C   UNL     1      25.859   4.094  52.847  1.00  0.00     0.042 A 
ATOM      2  C   UNL     1      25.650   4.913  53.967  1.00  0.00     0.014 A 
ATOM      3  C   UNL     1      24.652   5.889  53.978  1.00  0.00     0.006 A 
ATOM      4  C   UNL     1      23.883   6.143  52.854  1.00  0.00    -0.027 A 
ATOM      5  C   UNL     1      22.803   7.215  52.878  1.00  0.00     0.046 C 
ATOM      6  C   UNL     1      24.155   5.402  51.704  1.00  0.00     0.045 A 
ATOM      7  C   UNL     1      25.144   4.411  51.721  1.00  0.00     0.040 A 
ENDROOT
BRANCH   1   8
ATOM      8  C   UNL     1      26.967   3.129  52.702  1.00  0.00     0.255 C 
ATOM      9  O   UNL     1      27.653   3.272  51.720  1.00  0.00    -0.269 OA
ATOM     10  N   UNL     1      27.242   2.378  53.779  1.00  0.00    -0.322 N 
ATOM     11  H   UNL     1      26.621   2.484  54.594  1.00  0.00     0.170 HD
BRANCH  10  12
ATOM     12  C   UNL     1      28.287   1.470  53.896  1.00  0.00     0.044 A 
ATOM     13  C   UNL     1      29.548   1.733  53.305  1.00  0.00     0.052 A 
ATOM     14  C   UNL     1      28.080   0.212  54.501  1.00  0.00     0.039 A 
ATOM     15  C   UNL     1      30.608   0.831  53.425  1.00  0.00     0.049 A 
ATOM     16  C   UNL     1      29.168  -0.697  54.642  1.00  0.00     0.060 A 
ATOM     17  C   UNL     1      30.403  -0.384  54.070  1.00  0.00     0.039 A 
BRANCH  15  18
ATOM     18  N   UNL     1      31.872   1.101  52.880  1.00  0.00    -0.306 N 
ATOM     19  C   UNL     1      32.458   0.581  51.727  1.00  0.00     0.116 A 
ATOM     20  C   UNL     1      32.831   1.862  53.419  1.00  0.00     0.204 A 
ATOM     21  C   UNL     1      33.718   1.060  51.641  1.00  0.00     0.056 A 
ATOM     22  N   UNL     1      33.921   1.885  52.692  1.00  0.00    -0.242 NA
ATOM     23  C   UNL     1      34.740   0.798  50.560  1.00  0.00     0.068 C 
ENDBRANCH  15  18
BRANCH  16  24
ATOM     24  C   UNL     1      28.936  -1.997  55.341  1.00  0.00     0.416 C 
ATOM     25  F   UNL     1      28.279  -1.904  56.514  1.00  0.00    -0.166 F 
ATOM     26  F   UNL     1      28.129  -2.781  54.635  1.00  0.00    -0.166 F 
ATOM     27  F   UNL     1      30.089  -2.612  55.676  1.00  0.00    -0.166 F 
ENDBRANCH  16  24
ENDBRANCH  10  12
ENDBRANCH   1   8
BRANCH   6  28
ATOM     28  N   UNL     1      23.288   5.526  50.611  1.00  0.00    -0.324 N 
ATOM     29  H   UNL     1      22.442   6.109  50.682  1.00  0.00     0.170 HD
BRANCH  28  30
ATOM     30  C   UNL     1      23.580   4.852  49.423  1.00  0.00     0.227 A 
ATOM     31  N   UNL     1      24.211   5.300  48.345  1.00  0.00    -0.221 NA
ATOM     32  N   UNL     1      23.023   3.616  49.504  1.00  0.00    -0.213 NA
ATOM     33  C   UNL     1      24.321   4.447  47.310  1.00  0.00     0.117 A 
ATOM     34  C   UNL     1      23.131   2.815  48.437  1.00  0.00     0.077 A 
ATOM     35  C   UNL     1      23.779   3.219  47.324  1.00  0.00     0.049 A 
BRANCH  34  36
ATOM     36  C   UNL     1      22.537   1.461  48.588  1.00  0.00     0.019 A 
ATOM     37  C   UNL     1      22.604   0.760  49.803  1.00  0.00     0.013 A 
ATOM     38  C   UNL     1      21.896   0.836  47.501  1.00  0.00     0.121 A 
ATOM     39  C   UNL     1      22.053  -0.513  49.878  1.00  0.00     0.021 A 
ATOM     40  N   UNL     1      21.370  -0.394  47.565  1.00  0.00    -0.264 NA
ATOM     41  C   UNL     1      21.427  -1.032  48.745  1.00  0.00     0.111 A 
ENDBRANCH  34  36
ENDBRANCH  28  30
ENDBRANCH   6  28
TORSDOF 7
ENDMDL
MODEL 11
REMARK VINA RESULT:   -10.908      3.644     12.488
REMARK INTER + INTRA:         -14.164
REMARK INTER:                 -12.996
REMARK INTRA:                  -1.168
REMARK CONF_INDEPENDENT:        2.088
REMARK UNBOUND:                -1.168
REMARK SMILES Cc1cn(-c2cc(NC(=O)c3ccc(C)c(Nc4nccc(-c5cccnc5)n4)c3)cc(C(F)(F)F)c2)cn1
REMARK SMILES IDX 11 1 12 2 13 3 14 4 15 5 16 6 30 7 9 8 10 9 8 10 7 12 6 13
REMARK SMILES IDX 31 14 5 15 32 16 37 17 4 18 3 19 38 20 2 21 39 22 1 23 33 24
REMARK SMILES IDX 34 25 35 26 36 27 17 28 18 30 19 31 29 32 20 33 22 34 21 35
REMARK SMILES IDX 23 36 24 37 28 38 25 39 27 40 26 41
REMARK H PARENT 8 11 17 29
ROOT
ATOM      1  C   UNL     1      25.646   3.475  51.754  1.00  0.00     0.042 A 
ATOM      2  C   UNL     1      24.606   2.852  51.049  1.00  0.00     0.014 A 
ATOM      3  C   UNL     1      23.293   3.319  51.127  1.00  0.00     0.006 A 
ATOM      4  C   UNL     1      22.952   4.364  51.970  1.00  0.00    -0.027 A 
ATOM      5  C   UNL     1      21.514   4.858  52.052  1.00  0.00     0.046 C 
ATOM      6  C   UNL     1      23.963   4.920  52.752  1.00  0.00     0.045 A 
ATOM      7  C   UNL     1      25.279   4.454  52.640  1.00  0.00     0.040 A 
ENDROOT
BRANCH   1   8
ATOM      8  C   UNL     1      27.033   2.974  51.829  1.00  0.00     0.255 C 
ATOM      9  O   UNL     1      27.613   2.895  50.773  1.00  0.00    -0.269 OA
ATOM     10  N   UNL     1      27.572   2.904  53.055  1.00  0.00    -0.322 N 
ATOM     11  H   UNL     1      26.959   3.139  53.849  1.00  0.00     0.170 HD
BRANCH  10  12
ATOM     12  C   UNL     1      28.880   2.543  53.353  1.00  0.00     0.044 A 
ATOM     13  C   UNL     1      29.550   1.550  52.595  1.00  0.00     0.052 A 
ATOM     14  C   UNL     1      29.529   3.069  54.491  1.00  0.00     0.039 A 
ATOM     15  C   UNL     1      30.869   1.187  52.881  1.00  0.00     0.049 A 
ATOM     16  C   UNL     1      30.880   2.714  54.767  1.00  0.00     0.060 A 
ATOM     17  C   UNL     1      31.514   1.753  53.976  1.00  0.00     0.039 A 
BRANCH  15  18
ATOM     18  N   UNL     1      31.556   0.236  52.111  1.00  0.00    -0.306 N 
ATOM     19  C   UNL     1      32.928   0.091  51.918  1.00  0.00     0.116 A 
ATOM     20  C   UNL     1      31.014  -0.692  51.314  1.00  0.00     0.204 A 
ATOM     21  C   UNL     1      33.127  -0.907  51.030  1.00  0.00     0.056 A 
ATOM     22  N   UNL     1      31.918  -1.406  50.689  1.00  0.00    -0.242 NA
ATOM     23  C   UNL     1      34.440  -1.447  50.517  1.00  0.00     0.068 C 
ENDBRANCH  15  18
BRANCH  16  24
ATOM     24  C   UNL     1      31.562   3.333  55.943  1.00  0.00     0.416 C 
ATOM     25  F   UNL     1      30.900   4.360  56.511  1.00  0.00    -0.166 F 
ATOM     26  F   UNL     1      31.650   2.472  56.951  1.00  0.00    -0.166 F 
ATOM     27  F   UNL     1      32.757   3.870  55.620  1.00  0.00    -0.166 F 
ENDBRANCH  16  24
ENDBRANCH  10  12
ENDBRANCH   1   8
BRANCH   6  28
ATOM     28  N   UNL     1      23.677   6.078  53.487  1.00  0.00    -0.324 N 
ATOM     29  H   UNL     1      23.800   6.088  54.509  1.00  0.00     0.170 HD
BRANCH  28  30
ATOM     30  C   UNL     1      23.224   7.219  52.821  1.00  0.00     0.227 A 
ATOM     31  N   UNL     1      23.755   7.838  51.774  1.00  0.00    -0.221 NA
ATOM     32  N   UNL     1      22.135   7.680  53.489  1.00  0.00    -0.213 NA
ATOM     33  C   UNL     1      23.134   8.956  51.353  1.00  0.00     0.117 A 
ATOM     34  C   UNL     1      21.572   8.813  53.052  1.00  0.00     0.077 A 
ATOM     35  C   UNL     1      22.064   9.469  51.980  1.00  0.00     0.049 A 
BRANCH  34  36
ATOM     36  C   UNL     1      20.362   9.256  53.794  1.00  0.00     0.019 A 
ATOM     37  C   UNL     1      20.092   8.805  55.096  1.00  0.00     0.013 A 
ATOM     38  C   UNL     1      19.440  10.137  53.197  1.00  0.00     0.121 A 
ATOM     39  C   UNL     1      18.934   9.233  55.732  1.00  0.00     0.021 A 
ATOM     40  N   UNL     1      18.317  10.547  53.801  1.00  0.00    -0.264 NA
ATOM     41  C   UNL     1      18.096  10.120  55.056  1.00  0.00     0.111 A 
ENDBRANCH  34  36
ENDBRANCH  28  30
ENDBRANCH   6  28
TORSDOF 7
ENDMDL
MODEL 12
REMARK VINA RESULT:   -10.887      8.346     15.194
REMARK INTER + INTRA:         -14.290
REMARK INTER:                 -12.975
REMARK INTRA:                  -1.314
REMARK CONF_INDEPENDENT:        2.088
REMARK UNBOUND:                -1.314
REMARK SMILES Cc1cn(-c2cc(NC(=O)c3ccc(C)c(Nc4nccc(-c5cccnc5)n4)c3)cc(C(F)(F)F)c2)cn1
REMARK SMILES IDX 11 1 12 2 13 3 14 4 15 5 16 6 30 7 9 8 10 9 8 10 7 12 6 13
REMARK SMILES IDX 31 14 5 15 32 16 37 17 4 18 3 19 38 20 2 21 39 22 1 23 33 24
REMARK SMILES IDX 34 25 35 26 36 27 17 28 18 30 19 31 29 32 20 33 22 34 21 35
REMARK SMILES IDX 23 36 24 37 28 38 25 39 27 40 26 41
REMARK H PARENT 8 11 17 29
ROOT
ATOM      1  C   UNL     1      35.979  -1.678  49.286  1.00  0.00     0.042 A 
ATOM      2  C   UNL     1      35.191  -2.832  49.163  1.00  0.00     0.014 A 
ATOM      3  C   UNL     1      33.816  -2.802  49.397  1.00  0.00     0.006 A 
ATOM      4  C   UNL     1      33.188  -1.649  49.841  1.00  0.00    -0.027 A 
ATOM      5  C   UNL     1      31.688  -1.633  50.099  1.00  0.00     0.046 C 
ATOM      6  C   UNL     1      33.982  -0.526  50.065  1.00  0.00     0.045 A 
ATOM      7  C   UNL     1      35.357  -0.570  49.800  1.00  0.00     0.040 A 
ENDROOT
BRANCH   1   8
ATOM      8  C   UNL     1      37.451  -1.647  49.183  1.00  0.00     0.255 C 
ATOM      9  O   UNL     1      38.032  -1.261  50.168  1.00  0.00    -0.269 OA
ATOM     10  N   UNL     1      37.984  -2.276  48.124  1.00  0.00    -0.322 N 
ATOM     11  H   UNL     1      37.327  -2.670  47.436  1.00  0.00     0.170 HD
BRANCH  10  12
ATOM     12  C   UNL     1      39.339  -2.443  47.871  1.00  0.00     0.044 A 
ATOM     13  C   UNL     1      39.906  -2.028  46.640  1.00  0.00     0.052 A 
ATOM     14  C   UNL     1      40.160  -3.139  48.785  1.00  0.00     0.039 A 
ATOM     15  C   UNL     1      41.270  -2.183  46.380  1.00  0.00     0.049 A 
ATOM     16  C   UNL     1      41.554  -3.275  48.528  1.00  0.00     0.060 A 
ATOM     17  C   UNL     1      42.077  -2.825  47.313  1.00  0.00     0.039 A 
BRANCH  15  18
ATOM     18  N   UNL     1      41.848  -1.737  45.181  1.00  0.00    -0.306 N 
ATOM     19  C   UNL     1      42.150  -0.436  44.785  1.00  0.00     0.116 A 
ATOM     20  C   UNL     1      42.150  -2.483  44.112  1.00  0.00     0.204 A 
ATOM     21  C   UNL     1      42.615  -0.477  43.518  1.00  0.00     0.056 A 
ATOM     22  N   UNL     1      42.638  -1.771  43.126  1.00  0.00    -0.242 NA
ATOM     23  C   UNL     1      43.090   0.674  42.664  1.00  0.00     0.068 C 
ENDBRANCH  15  18
BRANCH  16  24
ATOM     24  C   UNL     1      42.410  -3.964  49.541  1.00  0.00     0.416 C 
ATOM     25  F   UNL     1      43.088  -3.142  50.367  1.00  0.00    -0.166 F 
ATOM     26  F   UNL     1      41.671  -4.663  50.394  1.00  0.00    -0.166 F 
ATOM     27  F   UNL     1      43.382  -4.706  48.971  1.00  0.00    -0.166 F 
ENDBRANCH  16  24
ENDBRANCH  10  12
ENDBRANCH   1   8
BRANCH   6  28
ATOM     28  N   UNL     1      33.351   0.690  50.355  1.00  0.00    -0.324 N 
ATOM     29  H   UNL     1      33.017   1.297  49.593  1.00  0.00     0.170 HD
BRANCH  28  30
ATOM     30  C   UNL     1      33.178   1.073  51.686  1.00  0.00     0.227 A 
ATOM     31  N   UNL     1      33.881   1.943  52.400  1.00  0.00    -0.221 NA
ATOM     32  N   UNL     1      32.169   0.325  52.202  1.00  0.00    -0.213 NA
ATOM     33  C   UNL     1      33.525   2.096  53.690  1.00  0.00     0.117 A 
ATOM     34  C   UNL     1      31.873   0.488  53.497  1.00  0.00     0.077 A 
ATOM     35  C   UNL     1      32.548   1.374  54.261  1.00  0.00     0.049 A 
BRANCH  34  36
ATOM     36  C   UNL     1      30.740  -0.328  54.005  1.00  0.00     0.019 A 
ATOM     37  C   UNL     1      29.670   0.253  54.703  1.00  0.00     0.013 A 
ATOM     38  C   UNL     1      30.718  -1.723  53.808  1.00  0.00     0.121 A 
ATOM     39  C   UNL     1      28.650  -0.563  55.177  1.00  0.00     0.021 A 
ATOM     40  N   UNL     1      29.742  -2.516  54.269  1.00  0.00    -0.264 NA
ATOM     41  C   UNL     1      28.719  -1.930  54.912  1.00  0.00     0.111 A 
ENDBRANCH  34  36
ENDBRANCH  28  30
ENDBRANCH   6  28
TORSDOF 7
ENDMDL
MODEL 13
REMARK VINA RESULT:   -10.818      4.701     13.540
REMARK INTER + INTRA:         -14.238
REMARK INTER:                 -12.906
REMARK INTRA:                  -1.332
REMARK CONF_INDEPENDENT:        2.088
REMARK UNBOUND:                -1.332
REMARK SMILES Cc1cn(-c2cc(NC(=O)c3ccc(C)c(Nc4nccc(-c5cccnc5)n4)c3)cc(C(F)(F)F)c2)cn1
REMARK SMILES IDX 11 1 12 2 13 3 14 4 15 5 16 6 30 7 9 8 10 9 8 10 7 12 6 13
REMARK SMILES IDX 31 14 5 15 32 16 37 17 4 18 3 19 38 20 2 21 39 22 1 23 33 24
REMARK SMILES IDX 34 25 35 26 36 27 17 28 18 30 19 31 29 32 20 33 22 34 21 35
REMARK SMILES IDX 23 36 24 37 28 38 25 39 27 40 26 41
REMARK H PARENT 8 11 17 29
ROOT
ATOM      1  C   UNL     1      21.143   7.316  54.260  1.00  0.00     0.042 A 
ATOM      2  C   UNL     1      21.052   7.515  55.646  1.00  0.00     0.014 A 
ATOM      3  C   UNL     1      20.338   8.587  56.181  1.00  0.00     0.006 A 
ATOM      4  C   UNL     1      19.760   9.545  55.364  1.00  0.00    -0.027 A 
ATOM      5  C   UNL     1      18.989  10.714  55.961  1.00  0.00     0.046 C 
ATOM      6  C   UNL     1      19.934   9.410  53.987  1.00  0.00     0.045 A 
ATOM      7  C   UNL     1      20.634   8.313  53.469  1.00  0.00     0.040 A 
ENDROOT
BRANCH   1   8
ATOM      8  C   UNL     1      21.979   6.288  53.608  1.00  0.00     0.255 C 
ATOM      9  O   UNL     1      21.898   5.180  54.080  1.00  0.00    -0.269 OA
ATOM     10  N   UNL     1      22.527   6.630  52.433  1.00  0.00    -0.322 N 
ATOM     11  H   UNL     1      22.380   7.597  52.112  1.00  0.00     0.170 HD
BRANCH  10  12
ATOM     12  C   UNL     1      23.277   5.798  51.610  1.00  0.00     0.044 A 
ATOM     13  C   UNL     1      24.373   5.063  52.124  1.00  0.00     0.052 A 
ATOM     14  C   UNL     1      23.038   5.761  50.219  1.00  0.00     0.039 A 
ATOM     15  C   UNL     1      25.127   4.216  51.306  1.00  0.00     0.049 A 
ATOM     16  C   UNL     1      23.793   4.881  49.391  1.00  0.00     0.060 A 
ATOM     17  C   UNL     1      24.846   4.150  49.945  1.00  0.00     0.039 A 
BRANCH  15  18
ATOM     18  N   UNL     1      26.188   3.452  51.814  1.00  0.00    -0.306 N 
ATOM     19  C   UNL     1      26.545   3.222  53.142  1.00  0.00     0.116 A 
ATOM     20  C   UNL     1      27.150   2.847  51.107  1.00  0.00     0.204 A 
ATOM     21  C   UNL     1      27.685   2.497  53.153  1.00  0.00     0.056 A 
ATOM     22  N   UNL     1      28.029   2.245  51.871  1.00  0.00    -0.242 NA
ATOM     23  C   UNL     1      28.449   1.986  54.350  1.00  0.00     0.068 C 
ENDBRANCH  15  18
BRANCH  16  24
ATOM     24  C   UNL     1      23.478   4.816  47.932  1.00  0.00     0.416 C 
ATOM     25  F   UNL     1      24.327   5.497  47.136  1.00  0.00    -0.166 F 
ATOM     26  F   UNL     1      23.603   3.577  47.471  1.00  0.00    -0.166 F 
ATOM     27  F   UNL     1      22.276   5.355  47.642  1.00  0.00    -0.166 F 
ENDBRANCH  16  24
ENDBRANCH  10  12
ENDBRANCH   1   8
BRANCH   6  28
ATOM     28  N   UNL     1      19.226  10.269  53.138  1.00  0.00    -0.324 N 
ATOM     29  H   UNL     1      19.725  10.832  52.434  1.00  0.00     0.170 HD
BRANCH  28  30
ATOM     30  C   UNL     1      17.837  10.358  53.252  1.00  0.00     0.227 A 
ATOM     31  N   UNL     1      17.072  11.441  53.289  1.00  0.00    -0.221 NA
ATOM     32  N   UNL     1      17.356   9.097  53.407  1.00  0.00    -0.213 NA
ATOM     33  C   UNL     1      15.750  11.244  53.452  1.00  0.00     0.117 A 
ATOM     34  C   UNL     1      16.039   8.954  53.598  1.00  0.00     0.077 A 
ATOM     35  C   UNL     1      15.217  10.024  53.625  1.00  0.00     0.049 A 
BRANCH  34  36
ATOM     36  C   UNL     1      15.558   7.554  53.727  1.00  0.00     0.019 A 
ATOM     37  C   UNL     1      14.768   7.145  54.813  1.00  0.00     0.013 A 
ATOM     38  C   UNL     1      15.900   6.588  52.760  1.00  0.00     0.121 A 
ATOM     39  C   UNL     1      14.368   5.817  54.895  1.00  0.00     0.021 A 
ATOM     40  N   UNL     1      15.524   5.305  52.838  1.00  0.00    -0.264 NA
ATOM     41  C   UNL     1      14.747   4.947  53.873  1.00  0.00     0.111 A 
ENDBRANCH  34  36
ENDBRANCH  28  30
ENDBRANCH   6  28
TORSDOF 7
ENDMDL
MODEL 14
REMARK VINA RESULT:   -10.794      1.894      2.921
REMARK INTER + INTRA:         -14.066
REMARK INTER:                 -12.882
REMARK INTRA:                  -1.184
REMARK CONF_INDEPENDENT:        2.088
REMARK UNBOUND:                -1.184
REMARK SMILES Cc1cn(-c2cc(NC(=O)c3ccc(C)c(Nc4nccc(-c5cccnc5)n4)c3)cc(C(F)(F)F)c2)cn1
REMARK SMILES IDX 11 1 12 2 13 3 14 4 15 5 16 6 30 7 9 8 10 9 8 10 7 12 6 13
REMARK SMILES IDX 31 14 5 15 32 16 37 17 4 18 3 19 38 20 2 21 39 22 1 23 33 24
REMARK SMILES IDX 34 25 35 26 36 27 17 28 18 30 19 31 29 32 20 33 22 34 21 35
REMARK SMILES IDX 23 36 24 37 28 38 25 39 27 40 26 41
REMARK H PARENT 8 11 17 29
ROOT
ATOM      1  C   UNL     1      26.833   2.673  52.546  1.00  0.00     0.042 A 
ATOM      2  C   UNL     1      26.900   1.607  51.636  1.00  0.00     0.014 A 
ATOM      3  C   UNL     1      27.790   0.548  51.821  1.00  0.00     0.006 A 
ATOM      4  C   UNL     1      28.701   0.549  52.865  1.00  0.00    -0.027 A 
ATOM      5  C   UNL     1      29.671  -0.610  53.050  1.00  0.00     0.046 C 
ATOM      6  C   UNL     1      28.710   1.655  53.713  1.00  0.00     0.045 A 
ATOM      7  C   UNL     1      27.791   2.696  53.525  1.00  0.00     0.040 A 
ENDROOT
BRANCH   1   8
ATOM      8  C   UNL     1      26.017   3.889  52.362  1.00  0.00     0.255 C 
ATOM      9  O   UNL     1      25.881   4.254  51.219  1.00  0.00    -0.269 OA
ATOM     10  N   UNL     1      25.319   4.300  53.431  1.00  0.00    -0.322 N 
ATOM     11  H   UNL     1      25.458   3.780  54.309  1.00  0.00     0.170 HD
BRANCH  10  12
ATOM     12  C   UNL     1      24.427   5.365  53.463  1.00  0.00     0.044 A 
ATOM     13  C   UNL     1      23.689   5.660  54.636  1.00  0.00     0.052 A 
ATOM     14  C   UNL     1      24.146   6.101  52.291  1.00  0.00     0.039 A 
ATOM     15  C   UNL     1      22.797   6.735  54.681  1.00  0.00     0.049 A 
ATOM     16  C   UNL     1      23.253   7.209  52.345  1.00  0.00     0.060 A 
ATOM     17  C   UNL     1      22.569   7.484  53.531  1.00  0.00     0.039 A 
BRANCH  15  18
ATOM     18  N   UNL     1      22.093   7.061  55.850  1.00  0.00    -0.306 N 
ATOM     19  C   UNL     1      22.570   7.188  57.153  1.00  0.00     0.116 A 
ATOM     20  C   UNL     1      20.771   7.232  55.967  1.00  0.00     0.204 A 
ATOM     21  C   UNL     1      21.519   7.430  57.966  1.00  0.00     0.056 A 
ATOM     22  N   UNL     1      20.406   7.486  57.201  1.00  0.00    -0.242 NA
ATOM     23  C   UNL     1      21.532   7.659  59.458  1.00  0.00     0.068 C 
ENDBRANCH  15  18
BRANCH  16  24
ATOM     24  C   UNL     1      23.020   8.009  51.104  1.00  0.00     0.416 C 
ATOM     25  F   UNL     1      22.213   9.077  51.258  1.00  0.00    -0.166 F 
ATOM     26  F   UNL     1      24.146   8.573  50.682  1.00  0.00    -0.166 F 
ATOM     27  F   UNL     1      22.410   7.291  50.139  1.00  0.00    -0.166 F 
ENDBRANCH  16  24
ENDBRANCH  10  12
ENDBRANCH   1   8
BRANCH   6  28
ATOM     28  N   UNL     1      29.505   1.605  54.866  1.00  0.00    -0.324 N 
ATOM     29  H   UNL     1      29.123   1.225  55.743  1.00  0.00     0.170 HD
BRANCH  28  30
ATOM     30  C   UNL     1      30.819   2.074  54.814  1.00  0.00     0.227 A 
ATOM     31  N   UNL     1      31.387   3.038  55.528  1.00  0.00    -0.221 NA
ATOM     32  N   UNL     1      31.453   1.414  53.812  1.00  0.00    -0.213 NA
ATOM     33  C   UNL     1      32.672   3.324  55.244  1.00  0.00     0.117 A 
ATOM     34  C   UNL     1      32.719   1.755  53.546  1.00  0.00     0.077 A 
ATOM     35  C   UNL     1      33.347   2.717  54.256  1.00  0.00     0.049 A 
BRANCH  34  36
ATOM     36  C   UNL     1      33.380   0.979  52.464  1.00  0.00     0.019 A 
ATOM     37  C   UNL     1      32.780  -0.161  51.905  1.00  0.00     0.013 A 
ATOM     38  C   UNL     1      34.646   1.362  51.979  1.00  0.00     0.121 A 
ATOM     39  C   UNL     1      33.456  -0.861  50.914  1.00  0.00     0.021 A 
ATOM     40  N   UNL     1      35.305   0.686  51.030  1.00  0.00    -0.264 NA
ATOM     41  C   UNL     1      34.697  -0.385  50.494  1.00  0.00     0.111 A 
ENDBRANCH  34  36
ENDBRANCH  28  30
ENDBRANCH   6  28
TORSDOF 7
ENDMDL
MODEL 15
REMARK VINA RESULT:   -10.649      3.745     12.036
REMARK INTER + INTRA:         -13.823
REMARK INTER:                 -12.737
REMARK INTRA:                  -1.086
REMARK CONF_INDEPENDENT:        2.088
REMARK UNBOUND:                -1.086
REMARK SMILES Cc1cn(-c2cc(NC(=O)c3ccc(C)c(Nc4nccc(-c5cccnc5)n4)c3)cc(C(F)(F)F)c2)cn1
REMARK SMILES IDX 11 1 12 2 13 3 14 4 15 5 16 6 30 7 9 8 10 9 8 10 7 12 6 13
REMARK SMILES IDX 31 14 5 15 32 16 37 17 4 18 3 19 38 20 2 21 39 22 1 23 33 24
REMARK SMILES IDX 34 25 35 26 36 27 17 28 18 30 19 31 29 32 20 33 22 34 21 35
REMARK SMILES IDX 23 36 24 37 28 38 25 39 27 40 26 41
REMARK H PARENT 8 11 17 29
ROOT
ATOM      1  C   UNL     1      26.285   3.216  52.148  1.00  0.00     0.042 A 
ATOM      2  C   UNL     1      25.895   3.239  50.800  1.00  0.00     0.014 A 
ATOM      3  C   UNL     1      24.906   4.112  50.345  1.00  0.00     0.006 A 
ATOM      4  C   UNL     1      24.213   4.933  51.220  1.00  0.00    -0.027 A 
ATOM      5  C   UNL     1      23.132   5.875  50.710  1.00  0.00     0.046 C 
ATOM      6  C   UNL     1      24.524   4.840  52.575  1.00  0.00     0.045 A 
ATOM      7  C   UNL     1      25.537   3.976  53.010  1.00  0.00     0.040 A 
ENDROOT
BRANCH   1   8
ATOM      8  C   UNL     1      27.226   2.243  52.737  1.00  0.00     0.255 C 
ATOM      9  O   UNL     1      26.927   1.832  53.832  1.00  0.00    -0.269 OA
ATOM     10  N   UNL     1      28.153   1.740  51.909  1.00  0.00    -0.322 N 
ATOM     11  H   UNL     1      28.179   2.118  50.951  1.00  0.00     0.170 HD
BRANCH  10  12
ATOM     12  C   UNL     1      29.081   0.756  52.224  1.00  0.00     0.044 A 
ATOM     13  C   UNL     1      30.088   0.383  51.300  1.00  0.00     0.052 A 
ATOM     14  C   UNL     1      28.968   0.021  53.424  1.00  0.00     0.039 A 
ATOM     15  C   UNL     1      31.033  -0.599  51.612  1.00  0.00     0.049 A 
ATOM     16  C   UNL     1      29.944  -0.964  53.750  1.00  0.00     0.060 A 
ATOM     17  C   UNL     1      30.939  -1.279  52.822  1.00  0.00     0.039 A 
BRANCH  15  18
ATOM     18  N   UNL     1      32.059  -0.946  50.720  1.00  0.00    -0.306 N 
ATOM     19  C   UNL     1      33.373  -0.485  50.676  1.00  0.00     0.116 A 
ATOM     20  C   UNL     1      31.955  -1.741  49.649  1.00  0.00     0.204 A 
ATOM     21  C   UNL     1      33.975  -1.028  49.596  1.00  0.00     0.056 A 
ATOM     22  N   UNL     1      33.081  -1.837  48.985  1.00  0.00    -0.242 NA
ATOM     23  C   UNL     1      35.402  -0.845  49.138  1.00  0.00     0.068 C 
ENDBRANCH  15  18
BRANCH  16  24
ATOM     24  C   UNL     1      29.835  -1.684  55.054  1.00  0.00     0.416 C 
ATOM     25  F   UNL     1      29.707  -3.023  54.957  1.00  0.00    -0.166 F 
ATOM     26  F   UNL     1      30.953  -1.566  55.760  1.00  0.00    -0.166 F 
ATOM     27  F   UNL     1      28.742  -1.315  55.754  1.00  0.00    -0.166 F 
ENDBRANCH  16  24
ENDBRANCH  10  12
ENDBRANCH   1   8
BRANCH   6  28
ATOM     28  N   UNL     1      23.956   5.771  53.455  1.00  0.00    -0.324 N 
ATOM     29  H   UNL     1      22.991   6.100  53.310  1.00  0.00     0.170 HD
BRANCH  28  30
ATOM     30  C   UNL     1      24.708   6.248  54.531  1.00  0.00     0.227 A 
ATOM     31  N   UNL     1      26.025   6.365  54.638  1.00  0.00    -0.221 NA
ATOM     32  N   UNL     1      23.847   6.520  55.545  1.00  0.00    -0.213 NA
ATOM     33  C   UNL     1      26.498   6.818  55.815  1.00  0.00     0.117 A 
ATOM     34  C   UNL     1      24.367   6.936  56.706  1.00  0.00     0.077 A 
ATOM     35  C   UNL     1      25.700   7.089  56.859  1.00  0.00     0.049 A 
BRANCH  34  36
ATOM     36  C   UNL     1      23.383   7.255  57.773  1.00  0.00     0.019 A 
ATOM     37  C   UNL     1      22.020   7.432  57.487  1.00  0.00     0.013 A 
ATOM     38  C   UNL     1      23.800   7.403  59.110  1.00  0.00     0.121 A 
ATOM     39  C   UNL     1      21.149   7.753  58.521  1.00  0.00     0.021 A 
ATOM     40  N   UNL     1      22.967   7.720  60.110  1.00  0.00    -0.264 NA
ATOM     41  C   UNL     1      21.665   7.859  59.812  1.00  0.00     0.111 A 
ENDBRANCH  34  36
ENDBRANCH  28  30
ENDBRANCH   6  28
TORSDOF 7
ENDMDL
MODEL 16
REMARK VINA RESULT:   -10.569      8.269     14.918
REMARK INTER + INTRA:         -14.009
REMARK INTER:                 -12.657
REMARK INTRA:                  -1.352
REMARK CONF_INDEPENDENT:        2.088
REMARK UNBOUND:                -1.352
REMARK SMILES Cc1cn(-c2cc(NC(=O)c3ccc(C)c(Nc4nccc(-c5cccnc5)n4)c3)cc(C(F)(F)F)c2)cn1
REMARK SMILES IDX 11 1 12 2 13 3 14 4 15 5 16 6 30 7 9 8 10 9 8 10 7 12 6 13
REMARK SMILES IDX 31 14 5 15 32 16 37 17 4 18 3 19 38 20 2 21 39 22 1 23 33 24
REMARK SMILES IDX 34 25 35 26 36 27 17 28 18 30 19 31 29 32 20 33 22 34 21 35
REMARK SMILES IDX 23 36 24 37 28 38 25 39 27 40 26 41
REMARK H PARENT 8 11 17 29
ROOT
ATOM      1  C   UNL     1      36.149  -1.580  49.457  1.00  0.00     0.042 A 
ATOM      2  C   UNL     1      35.423  -2.764  49.254  1.00  0.00     0.014 A 
ATOM      3  C   UNL     1      34.034  -2.797  49.386  1.00  0.00     0.006 A 
ATOM      4  C   UNL     1      33.326  -1.682  49.805  1.00  0.00    -0.027 A 
ATOM      5  C   UNL     1      31.812  -1.735  49.952  1.00  0.00     0.046 C 
ATOM      6  C   UNL     1      34.052  -0.531  50.108  1.00  0.00     0.045 A 
ATOM      7  C   UNL     1      35.443  -0.511  49.945  1.00  0.00     0.040 A 
ENDROOT
BRANCH   1   8
ATOM      8  C   UNL     1      37.622  -1.484  49.462  1.00  0.00     0.255 C 
ATOM      9  O   UNL     1      38.079  -0.567  50.100  1.00  0.00    -0.269 OA
ATOM     10  N   UNL     1      38.286  -2.546  48.982  1.00  0.00    -0.322 N 
ATOM     11  H   UNL     1      37.721  -3.312  48.589  1.00  0.00     0.170 HD
BRANCH  10  12
ATOM     12  C   UNL     1      39.665  -2.708  48.967  1.00  0.00     0.044 A 
ATOM     13  C   UNL     1      40.419  -2.638  50.165  1.00  0.00     0.052 A 
ATOM     14  C   UNL     1      40.361  -2.825  47.744  1.00  0.00     0.039 A 
ATOM     15  C   UNL     1      41.806  -2.809  50.162  1.00  0.00     0.049 A 
ATOM     16  C   UNL     1      41.772  -3.021  47.745  1.00  0.00     0.060 A 
ATOM     17  C   UNL     1      42.472  -2.975  48.952  1.00  0.00     0.039 A 
BRANCH  15  18
ATOM     18  N   UNL     1      42.556  -2.783  51.347  1.00  0.00    -0.306 N 
ATOM     19  C   UNL     1      42.634  -3.743  52.355  1.00  0.00     0.116 A 
ATOM     20  C   UNL     1      43.295  -1.766  51.806  1.00  0.00     0.204 A 
ATOM     21  C   UNL     1      43.411  -3.253  53.345  1.00  0.00     0.056 A 
ATOM     22  N   UNL     1      43.842  -2.028  52.968  1.00  0.00    -0.242 NA
ATOM     23  C   UNL     1      43.807  -3.928  54.636  1.00  0.00     0.068 C 
ENDBRANCH  15  18
BRANCH  16  24
ATOM     24  C   UNL     1      42.475  -3.202  46.439  1.00  0.00     0.416 C 
ATOM     25  F   UNL     1      42.018  -4.220  45.682  1.00  0.00    -0.166 F 
ATOM     26  F   UNL     1      42.279  -2.158  45.642  1.00  0.00    -0.166 F 
ATOM     27  F   UNL     1      43.783  -3.492  46.597  1.00  0.00    -0.166 F 
ENDBRANCH  16  24
ENDBRANCH  10  12
ENDBRANCH   1   8
BRANCH   6  28
ATOM     28  N   UNL     1      33.348   0.650  50.375  1.00  0.00    -0.324 N 
ATOM     29  H   UNL     1      32.980   1.221  49.601  1.00  0.00     0.170 HD
BRANCH  28  30
ATOM     30  C   UNL     1      33.150   1.047  51.699  1.00  0.00     0.227 A 
ATOM     31  N   UNL     1      33.827   1.940  52.410  1.00  0.00    -0.221 NA
ATOM     32  N   UNL     1      32.150   0.286  52.212  1.00  0.00    -0.213 NA
ATOM     33  C   UNL     1      33.451   2.103  53.693  1.00  0.00     0.117 A 
ATOM     34  C   UNL     1      31.833   0.461  53.500  1.00  0.00     0.077 A 
ATOM     35  C   UNL     1      32.481   1.370  54.261  1.00  0.00     0.049 A 
BRANCH  34  36
ATOM     36  C   UNL     1      30.709  -0.371  54.004  1.00  0.00     0.019 A 
ATOM     37  C   UNL     1      29.620   0.199  54.683  1.00  0.00     0.013 A 
ATOM     38  C   UNL     1      30.717  -1.768  53.825  1.00  0.00     0.121 A 
ATOM     39  C   UNL     1      28.610  -0.631  55.154  1.00  0.00     0.021 A 
ATOM     40  N   UNL     1      29.750  -2.573  54.284  1.00  0.00    -0.264 NA
ATOM     41  C   UNL     1      28.708  -1.999  54.906  1.00  0.00     0.111 A 
ENDBRANCH  34  36
ENDBRANCH  28  30
ENDBRANCH   6  28
TORSDOF 7
ENDMDL
MODEL 17
REMARK VINA RESULT:   -10.542      5.783     10.917
REMARK INTER + INTRA:         -13.796
REMARK INTER:                 -12.630
REMARK INTRA:                  -1.166
REMARK CONF_INDEPENDENT:        2.088
REMARK UNBOUND:                -1.166
REMARK SMILES Cc1cn(-c2cc(NC(=O)c3ccc(C)c(Nc4nccc(-c5cccnc5)n4)c3)cc(C(F)(F)F)c2)cn1
REMARK SMILES IDX 11 1 12 2 13 3 14 4 15 5 16 6 30 7 9 8 10 9 8 10 7 12 6 13
REMARK SMILES IDX 31 14 5 15 32 16 37 17 4 18 3 19 38 20 2 21 39 22 1 23 33 24
REMARK SMILES IDX 34 25 35 26 36 27 17 28 18 30 19 31 29 32 20 33 22 34 21 35
REMARK SMILES IDX 23 36 24 37 28 38 25 39 27 40 26 41
REMARK H PARENT 8 11 17 29
ROOT
ATOM      1  C   UNL     1      22.350   6.451  55.272  1.00  0.00     0.042 A 
ATOM      2  C   UNL     1      21.624   7.584  54.877  1.00  0.00     0.014 A 
ATOM      3  C   UNL     1      21.156   8.510  55.810  1.00  0.00     0.006 A 
ATOM      4  C   UNL     1      21.319   8.304  57.171  1.00  0.00    -0.027 A 
ATOM      5  C   UNL     1      20.797   9.319  58.178  1.00  0.00     0.046 C 
ATOM      6  C   UNL     1      21.948   7.128  57.575  1.00  0.00     0.045 A 
ATOM      7  C   UNL     1      22.432   6.223  56.622  1.00  0.00     0.040 A 
ENDROOT
BRANCH   1   8
ATOM      8  C   UNL     1      22.769   5.360  54.370  1.00  0.00     0.255 C 
ATOM      9  O   UNL     1      21.900   4.586  54.054  1.00  0.00    -0.269 OA
ATOM     10  N   UNL     1      23.981   5.490  53.809  1.00  0.00    -0.322 N 
ATOM     11  H   UNL     1      24.547   6.300  54.100  1.00  0.00     0.170 HD
BRANCH  10  12
ATOM     12  C   UNL     1      24.542   4.633  52.870  1.00  0.00     0.044 A 
ATOM     13  C   UNL     1      23.789   4.179  51.759  1.00  0.00     0.052 A 
ATOM     14  C   UNL     1      25.833   4.098  53.068  1.00  0.00     0.039 A 
ATOM     15  C   UNL     1      24.348   3.325  50.804  1.00  0.00     0.049 A 
ATOM     16  C   UNL     1      26.409   3.245  52.084  1.00  0.00     0.060 A 
ATOM     17  C   UNL     1      25.642   2.847  50.986  1.00  0.00     0.039 A 
BRANCH  15  18
ATOM     18  N   UNL     1      23.626   2.903  49.678  1.00  0.00    -0.306 N 
ATOM     19  C   UNL     1      22.850   1.757  49.513  1.00  0.00     0.116 A 
ATOM     20  C   UNL     1      23.608   3.486  48.473  1.00  0.00     0.204 A 
ATOM     21  C   UNL     1      22.414   1.723  48.235  1.00  0.00     0.056 A 
ATOM     22  N   UNL     1      22.872   2.830  47.610  1.00  0.00    -0.242 NA
ATOM     23  C   UNL     1      21.528   0.689  47.583  1.00  0.00     0.068 C 
ENDBRANCH  15  18
BRANCH  16  24
ATOM     24  C   UNL     1      27.801   2.742  52.289  1.00  0.00     0.416 C 
ATOM     25  F   UNL     1      27.949   1.409  52.163  1.00  0.00    -0.166 F 
ATOM     26  F   UNL     1      28.617   3.200  51.348  1.00  0.00    -0.166 F 
ATOM     27  F   UNL     1      28.258   2.992  53.534  1.00  0.00    -0.166 F 
ENDBRANCH  16  24
ENDBRANCH  10  12
ENDBRANCH   1   8
BRANCH   6  28
ATOM     28  N   UNL     1      22.268   6.975  58.930  1.00  0.00    -0.324 N 
ATOM     29  H   UNL     1      21.722   6.334  59.523  1.00  0.00     0.170 HD
BRANCH  28  30
ATOM     30  C   UNL     1      23.334   7.697  59.470  1.00  0.00     0.227 A 
ATOM     31  N   UNL     1      23.595   8.995  59.371  1.00  0.00    -0.221 NA
ATOM     32  N   UNL     1      24.159   6.814  60.088  1.00  0.00    -0.213 NA
ATOM     33  C   UNL     1      24.726   9.431  59.957  1.00  0.00     0.117 A 
ATOM     34  C   UNL     1      25.287   7.290  60.628  1.00  0.00     0.077 A 
ATOM     35  C   UNL     1      25.589   8.605  60.569  1.00  0.00     0.049 A 
BRANCH  34  36
ATOM     36  C   UNL     1      26.139   6.289  61.323  1.00  0.00     0.019 A 
ATOM     37  C   UNL     1      26.400   6.375  62.700  1.00  0.00     0.013 A 
ATOM     38  C   UNL     1      26.724   5.227  60.606  1.00  0.00     0.121 A 
ATOM     39  C   UNL     1      27.224   5.426  63.291  1.00  0.00     0.021 A 
ATOM     40  N   UNL     1      27.525   4.314  61.169  1.00  0.00    -0.264 NA
ATOM     41  C   UNL     1      27.737   4.405  62.492  1.00  0.00     0.111 A 
ENDBRANCH  34  36
ENDBRANCH  28  30
ENDBRANCH   6  28
TORSDOF 7
ENDMDL
MODEL 18
REMARK VINA RESULT:   -10.523      5.178      8.115
REMARK INTER + INTRA:         -13.801
REMARK INTER:                 -12.611
REMARK INTRA:                  -1.191
REMARK CONF_INDEPENDENT:        2.088
REMARK UNBOUND:                -1.191
REMARK SMILES Cc1cn(-c2cc(NC(=O)c3ccc(C)c(Nc4nccc(-c5cccnc5)n4)c3)cc(C(F)(F)F)c2)cn1
REMARK SMILES IDX 11 1 12 2 13 3 14 4 15 5 16 6 30 7 9 8 10 9 8 10 7 12 6 13
REMARK SMILES IDX 31 14 5 15 32 16 37 17 4 18 3 19 38 20 2 21 39 22 1 23 33 24
REMARK SMILES IDX 34 25 35 26 36 27 17 28 18 30 19 31 29 32 20 33 22 34 21 35
REMARK SMILES IDX 23 36 24 37 28 38 25 39 27 40 26 41
REMARK H PARENT 8 11 17 29
ROOT
ATOM      1  C   UNL     1      24.431   6.015  54.157  1.00  0.00     0.042 A 
ATOM      2  C   UNL     1      23.837   6.674  53.071  1.00  0.00     0.014 A 
ATOM      3  C   UNL     1      23.728   6.063  51.821  1.00  0.00     0.006 A 
ATOM      4  C   UNL     1      24.276   4.813  51.582  1.00  0.00    -0.027 A 
ATOM      5  C   UNL     1      24.156   4.162  50.211  1.00  0.00     0.046 C 
ATOM      6  C   UNL     1      24.958   4.196  52.629  1.00  0.00     0.045 A 
ATOM      7  C   UNL     1      25.035   4.815  53.883  1.00  0.00     0.040 A 
ENDROOT
BRANCH   1   8
ATOM      8  C   UNL     1      24.701   6.629  55.472  1.00  0.00     0.255 C 
ATOM      9  O   UNL     1      25.620   7.412  55.499  1.00  0.00    -0.269 OA
ATOM     10  N   UNL     1      23.761   6.452  56.412  1.00  0.00    -0.322 N 
ATOM     11  H   UNL     1      22.963   5.850  56.168  1.00  0.00     0.170 HD
BRANCH  10  12
ATOM     12  C   UNL     1      23.767   7.006  57.686  1.00  0.00     0.044 A 
ATOM     13  C   UNL     1      24.706   6.583  58.659  1.00  0.00     0.052 A 
ATOM     14  C   UNL     1      22.761   7.917  58.078  1.00  0.00     0.039 A 
ATOM     15  C   UNL     1      24.726   7.141  59.940  1.00  0.00     0.049 A 
ATOM     16  C   UNL     1      22.797   8.501  59.376  1.00  0.00     0.060 A 
ATOM     17  C   UNL     1      23.759   8.076  60.295  1.00  0.00     0.039 A 
BRANCH  15  18
ATOM     18  N   UNL     1      25.678   6.759  60.897  1.00  0.00    -0.306 N 
ATOM     19  C   UNL     1      26.025   5.478  61.325  1.00  0.00     0.116 A 
ATOM     20  C   UNL     1      26.401   7.571  61.678  1.00  0.00     0.204 A 
ATOM     21  C   UNL     1      26.928   5.597  62.323  1.00  0.00     0.056 A 
ATOM     22  N   UNL     1      27.174   6.913  62.506  1.00  0.00    -0.242 NA
ATOM     23  C   UNL     1      27.613   4.492  63.091  1.00  0.00     0.068 C 
ENDBRANCH  15  18
BRANCH  16  24
ATOM     24  C   UNL     1      21.755   9.507  59.743  1.00  0.00     0.416 C 
ATOM     25  F   UNL     1      20.748   9.634  58.856  1.00  0.00    -0.166 F 
ATOM     26  F   UNL     1      21.107   9.143  60.844  1.00  0.00    -0.166 F 
ATOM     27  F   UNL     1      22.256  10.756  59.830  1.00  0.00    -0.166 F 
ENDBRANCH  16  24
ENDBRANCH  10  12
ENDBRANCH   1   8
BRANCH   6  28
ATOM     28  N   UNL     1      25.377   2.870  52.462  1.00  0.00    -0.324 N 
ATOM     29  H   UNL     1      24.702   2.097  52.546  1.00  0.00     0.170 HD
BRANCH  28  30
ATOM     30  C   UNL     1      26.719   2.604  52.180  1.00  0.00     0.227 A 
ATOM     31  N   UNL     1      27.529   3.222  51.331  1.00  0.00    -0.221 NA
ATOM     32  N   UNL     1      27.078   1.503  52.889  1.00  0.00    -0.213 NA
ATOM     33  C   UNL     1      28.778   2.730  51.219  1.00  0.00     0.117 A 
ATOM     34  C   UNL     1      28.319   1.032  52.720  1.00  0.00     0.077 A 
ATOM     35  C   UNL     1      29.187   1.637  51.881  1.00  0.00     0.049 A 
BRANCH  34  36
ATOM     36  C   UNL     1      28.674  -0.153  53.545  1.00  0.00     0.019 A 
ATOM     37  C   UNL     1      27.887  -0.552  54.637  1.00  0.00     0.013 A 
ATOM     38  C   UNL     1      29.830  -0.904  53.257  1.00  0.00     0.121 A 
ATOM     39  C   UNL     1      28.281  -1.652  55.387  1.00  0.00     0.021 A 
ATOM     40  N   UNL     1      30.220  -1.961  53.981  1.00  0.00    -0.264 NA
ATOM     41  C   UNL     1      29.435  -2.336  55.004  1.00  0.00     0.111 A 
ENDBRANCH  34  36
ENDBRANCH  28  30
ENDBRANCH   6  28
TORSDOF 7
ENDMDL
MODEL 19
REMARK VINA RESULT:   -10.395      3.919     11.794
REMARK INTER + INTRA:         -13.725
REMARK INTER:                 -12.483
REMARK INTRA:                  -1.242
REMARK CONF_INDEPENDENT:        2.088
REMARK UNBOUND:                -1.242
REMARK SMILES Cc1cn(-c2cc(NC(=O)c3ccc(C)c(Nc4nccc(-c5cccnc5)n4)c3)cc(C(F)(F)F)c2)cn1
REMARK SMILES IDX 11 1 12 2 13 3 14 4 15 5 16 6 30 7 9 8 10 9 8 10 7 12 6 13
REMARK SMILES IDX 31 14 5 15 32 16 37 17 4 18 3 19 38 20 2 21 39 22 1 23 33 24
REMARK SMILES IDX 34 25 35 26 36 27 17 28 18 30 19 31 29 32 20 33 22 34 21 35
REMARK SMILES IDX 23 36 24 37 28 38 25 39 27 40 26 41
REMARK H PARENT 8 11 17 29
ROOT
ATOM      1  C   UNL     1      25.686   3.622  51.910  1.00  0.00     0.042 A 
ATOM      2  C   UNL     1      24.771   3.380  50.874  1.00  0.00     0.014 A 
ATOM      3  C   UNL     1      23.448   3.819  50.955  1.00  0.00     0.006 A 
ATOM      4  C   UNL     1      22.965   4.437  52.097  1.00  0.00    -0.027 A 
ATOM      5  C   UNL     1      21.518   4.903  52.175  1.00  0.00     0.046 C 
ATOM      6  C   UNL     1      23.842   4.587  53.171  1.00  0.00     0.045 A 
ATOM      7  C   UNL     1      25.172   4.163  53.060  1.00  0.00     0.040 A 
ENDROOT
BRANCH   1   8
ATOM      8  C   UNL     1      27.060   3.087  51.963  1.00  0.00     0.255 C 
ATOM      9  O   UNL     1      27.629   3.012  50.901  1.00  0.00    -0.269 OA
ATOM     10  N   UNL     1      27.608   2.984  53.183  1.00  0.00    -0.322 N 
ATOM     11  H   UNL     1      27.009   3.221  53.986  1.00  0.00     0.170 HD
BRANCH  10  12
ATOM     12  C   UNL     1      28.910   2.586  53.462  1.00  0.00     0.044 A 
ATOM     13  C   UNL     1      29.542   1.576  52.696  1.00  0.00     0.052 A 
ATOM     14  C   UNL     1      29.589   3.094  54.591  1.00  0.00     0.039 A 
ATOM     15  C   UNL     1      30.854   1.177  52.962  1.00  0.00     0.049 A 
ATOM     16  C   UNL     1      30.934   2.702  54.848  1.00  0.00     0.060 A 
ATOM     17  C   UNL     1      31.530   1.725  54.048  1.00  0.00     0.039 A 
BRANCH  15  18
ATOM     18  N   UNL     1      31.504   0.207  52.183  1.00  0.00    -0.306 N 
ATOM     19  C   UNL     1      32.832   0.168  51.762  1.00  0.00     0.116 A 
ATOM     20  C   UNL     1      30.942  -0.856  51.596  1.00  0.00     0.204 A 
ATOM     21  C   UNL     1      32.988  -0.907  50.959  1.00  0.00     0.056 A 
ATOM     22  N   UNL     1      31.803  -1.553  50.894  1.00  0.00    -0.242 NA
ATOM     23  C   UNL     1      34.248  -1.381  50.277  1.00  0.00     0.068 C 
ENDBRANCH  15  18
BRANCH  16  24
ATOM     24  C   UNL     1      31.650   3.301  56.015  1.00  0.00     0.416 C 
ATOM     25  F   UNL     1      31.069   4.400  56.537  1.00  0.00    -0.166 F 
ATOM     26  F   UNL     1      31.650   2.472  57.052  1.00  0.00    -0.166 F 
ATOM     27  F   UNL     1      32.890   3.725  55.694  1.00  0.00    -0.166 F 
ENDBRANCH  16  24
ENDBRANCH  10  12
ENDBRANCH   1   8
BRANCH   6  28
ATOM     28  N   UNL     1      23.426   5.351  54.269  1.00  0.00    -0.324 N 
ATOM     29  H   UNL     1      22.507   5.182  54.701  1.00  0.00     0.170 HD
BRANCH  28  30
ATOM     30  C   UNL     1      24.269   6.344  54.774  1.00  0.00     0.227 A 
ATOM     31  N   UNL     1      25.500   6.225  55.255  1.00  0.00    -0.221 NA
ATOM     32  N   UNL     1      23.576   7.511  54.773  1.00  0.00    -0.213 NA
ATOM     33  C   UNL     1      26.077   7.348  55.723  1.00  0.00     0.117 A 
ATOM     34  C   UNL     1      24.180   8.593  55.278  1.00  0.00     0.077 A 
ATOM     35  C   UNL     1      25.438   8.528  55.763  1.00  0.00     0.049 A 
BRANCH  34  36
ATOM     36  C   UNL     1      23.393   9.853  55.221  1.00  0.00     0.019 A 
ATOM     37  C   UNL     1      23.298  10.711  56.329  1.00  0.00     0.013 A 
ATOM     38  C   UNL     1      22.704  10.214  54.047  1.00  0.00     0.121 A 
ATOM     39  C   UNL     1      22.528  11.862  56.226  1.00  0.00     0.021 A 
ATOM     40  N   UNL     1      21.954  11.319  53.945  1.00  0.00    -0.264 NA
ATOM     41  C   UNL     1      21.901  12.134  55.011  1.00  0.00     0.111 A 
ENDBRANCH  34  36
ENDBRANCH  28  30
ENDBRANCH   6  28
TORSDOF 7
ENDMDL
MODEL 20
REMARK VINA RESULT:   -10.326      3.428     11.128
REMARK INTER + INTRA:         -13.744
REMARK INTER:                 -12.414
REMARK INTRA:                  -1.330
REMARK CONF_INDEPENDENT:        2.088
REMARK UNBOUND:                -1.330
REMARK SMILES Cc1cn(-c2cc(NC(=O)c3ccc(C)c(Nc4nccc(-c5cccnc5)n4)c3)cc(C(F)(F)F)c2)cn1
REMARK SMILES IDX 11 1 12 2 13 3 14 4 15 5 16 6 30 7 9 8 10 9 8 10 7 12 6 13
REMARK SMILES IDX 31 14 5 15 32 16 37 17 4 18 3 19 38 20 2 21 39 22 1 23 33 24
REMARK SMILES IDX 34 25 35 26 36 27 17 28 18 30 19 31 29 32 20 33 22 34 21 35
REMARK SMILES IDX 23 36 24 37 28 38 25 39 27 40 26 41
REMARK H PARENT 8 11 17 29
ROOT
ATOM      1  C   UNL     1      25.586   3.801  51.197  1.00  0.00     0.042 A 
ATOM      2  C   UNL     1      25.374   3.618  49.822  1.00  0.00     0.014 A 
ATOM      3  C   UNL     1      24.451   4.393  49.119  1.00  0.00     0.006 A 
ATOM      4  C   UNL     1      23.648   5.318  49.767  1.00  0.00    -0.027 A 
ATOM      5  C   UNL     1      22.640   6.151  48.989  1.00  0.00     0.046 C 
ATOM      6  C   UNL     1      23.781   5.432  51.150  1.00  0.00     0.045 A 
ATOM      7  C   UNL     1      24.731   4.662  51.834  1.00  0.00     0.040 A 
ENDROOT
BRANCH   1   8
ATOM      8  C   UNL     1      26.445   2.946  52.039  1.00  0.00     0.255 C 
ATOM      9  O   UNL     1      26.021   2.716  53.146  1.00  0.00    -0.269 OA
ATOM     10  N   UNL     1      27.454   2.321  51.414  1.00  0.00    -0.322 N 
ATOM     11  H   UNL     1      27.591   2.538  50.416  1.00  0.00     0.170 HD
BRANCH  10  12
ATOM     12  C   UNL     1      28.331   1.410  51.988  1.00  0.00     0.044 A 
ATOM     13  C   UNL     1      29.544   1.062  51.343  1.00  0.00     0.052 A 
ATOM     14  C   UNL     1      27.977   0.719  53.168  1.00  0.00     0.039 A 
ATOM     15  C   UNL     1      30.437   0.154  51.918  1.00  0.00     0.049 A 
ATOM     16  C   UNL     1      28.898  -0.189  53.763  1.00  0.00     0.060 A 
ATOM     17  C   UNL     1      30.097  -0.481  53.108  1.00  0.00     0.039 A 
BRANCH  15  18
ATOM     18  N   UNL     1      31.660  -0.165  51.308  1.00  0.00    -0.306 N 
ATOM     19  C   UNL     1      31.937  -1.155  50.367  1.00  0.00     0.116 A 
ATOM     20  C   UNL     1      32.855   0.370  51.581  1.00  0.00     0.204 A 
ATOM     21  C   UNL     1      33.267  -1.152  50.130  1.00  0.00     0.056 A 
ATOM     22  N   UNL     1      33.819  -0.169  50.875  1.00  0.00    -0.242 NA
ATOM     23  C   UNL     1      34.042  -2.028  49.176  1.00  0.00     0.068 C 
ENDBRANCH  15  18
BRANCH  16  24
ATOM     24  C   UNL     1      28.523  -0.861  55.044  1.00  0.00     0.416 C 
ATOM     25  F   UNL     1      27.525  -1.762  54.943  1.00  0.00    -0.166 F 
ATOM     26  F   UNL     1      29.522  -1.607  55.502  1.00  0.00    -0.166 F 
ATOM     27  F   UNL     1      28.066   0.011  55.966  1.00  0.00    -0.166 F 
ENDBRANCH  16  24
ENDBRANCH  10  12
ENDBRANCH   1   8
BRANCH   6  28
ATOM     28  N   UNL     1      23.101   6.469  51.802  1.00  0.00    -0.324 N 
ATOM     29  H   UNL     1      22.848   7.326  51.291  1.00  0.00     0.170 HD
BRANCH  28  30
ATOM     30  C   UNL     1      22.767   6.330  53.151  1.00  0.00     0.227 A 
ATOM     31  N   UNL     1      21.573   6.138  53.698  1.00  0.00    -0.221 NA
ATOM     32  N   UNL     1      23.902   6.505  53.876  1.00  0.00    -0.213 NA
ATOM     33  C   UNL     1      21.525   6.082  55.042  1.00  0.00     0.117 A 
ATOM     34  C   UNL     1      23.799   6.473  55.210  1.00  0.00     0.077 A 
ATOM     35  C   UNL     1      22.609   6.264  55.813  1.00  0.00     0.049 A 
BRANCH  34  36
ATOM     36  C   UNL     1      25.073   6.636  55.956  1.00  0.00     0.019 A 
ATOM     37  C   UNL     1      26.308   6.280  55.390  1.00  0.00     0.013 A 
ATOM     38  C   UNL     1      25.073   7.141  57.271  1.00  0.00     0.121 A 
ATOM     39  C   UNL     1      27.465   6.430  56.144  1.00  0.00     0.021 A 
ATOM     40  N   UNL     1      26.183   7.281  58.006  1.00  0.00    -0.264 NA
ATOM     41  C   UNL     1      27.353   6.957  57.430  1.00  0.00     0.111 A 
ENDBRANCH  34  36
ENDBRANCH  28  30
ENDBRANCH   6  28
TORSDOF 7
ENDMDL
