MODEL 1
REMARK VINA RESULT:   -15.154      0.000      0.000
REMARK INTER + INTRA:         -18.421
REMARK INTER:                 -17.242
REMARK INTRA:                  -1.179
REMARK CONF_INDEPENDENT:        2.088
REMARK UNBOUND:                -1.179
REMARK SMILES Cc1cn(-c2cc(NC(=O)c3ccc(C)c(Nc4nccc(-c5cccnc5)n4)c3)cc(C(F)(F)F)c2)cn1
REMARK SMILES IDX 11 1 12 2 13 3 14 4 15 5 16 6 30 7 9 8 10 9 8 10 7 12 6 13
REMARK SMILES IDX 31 14 5 15 32 16 37 17 4 18 3 19 38 20 2 21 39 22 1 23 33 24
REMARK SMILES IDX 34 25 35 26 36 27 17 28 18 30 19 31 29 32 20 33 22 34 21 35
REMARK SMILES IDX 23 36 24 37 28 38 25 39 27 40 26 41
REMARK H PARENT 8 11 17 29
ROOT
ATOM      1  C   UNL     1      27.972   1.855  53.217  1.00  0.00     0.042 A 
ATOM      2  C   UNL     1      27.696   1.349  54.496  1.00  0.00     0.014 A 
ATOM      3  C   UNL     1      28.420   0.280  55.027  1.00  0.00     0.006 A 
ATOM      4  C   UNL     1      29.383  -0.377  54.280  1.00  0.00    -0.027 A 
ATOM      5  C   UNL     1      30.160  -1.546  54.869  1.00  0.00     0.046 C 
ATOM      6  C   UNL     1      29.591   0.055  52.970  1.00  0.00     0.045 A 
ATOM      7  C   UNL     1      28.872   1.145  52.465  1.00  0.00     0.040 A 
ENDROOT
BRANCH   1   8
ATOM      8  C   UNL     1      27.178   2.893  52.531  1.00  0.00     0.255 C 
ATOM      9  O   UNL     1      27.513   3.137  51.397  1.00  0.00    -0.269 OA
ATOM     10  N   UNL     1      26.039   3.262  53.135  1.00  0.00    -0.322 N 
ATOM     11  H   UNL     1      25.842   2.845  54.056  1.00  0.00     0.170 HD
BRANCH  10  12
ATOM     12  C   UNL     1      25.101   4.155  52.633  1.00  0.00     0.044 A 
ATOM     13  C   UNL     1      24.177   4.799  53.492  1.00  0.00     0.052 A 
ATOM     14  C   UNL     1      24.968   4.349  51.240  1.00  0.00     0.039 A 
ATOM     15  C   UNL     1      23.236   5.707  52.997  1.00  0.00     0.049 A 
ATOM     16  C   UNL     1      24.024   5.290  50.740  1.00  0.00     0.060 A 
ATOM     17  C   UNL     1      23.152   5.927  51.626  1.00  0.00     0.039 A 
BRANCH  15  18
ATOM     18  N   UNL     1      22.345   6.382  53.845  1.00  0.00    -0.306 N 
ATOM     19  C   UNL     1      22.029   6.114  55.176  1.00  0.00     0.116 A 
ATOM     20  C   UNL     1      21.529   7.389  53.511  1.00  0.00     0.204 A 
ATOM     21  C   UNL     1      21.057   6.970  55.559  1.00  0.00     0.056 A 
ATOM     22  N   UNL     1      20.781   7.781  54.514  1.00  0.00    -0.242 NA
ATOM     23  C   UNL     1      20.400   7.083  56.914  1.00  0.00     0.068 C 
ENDBRANCH  15  18
BRANCH  16  24
ATOM     24  C   UNL     1      23.946   5.520  49.265  1.00  0.00     0.416 C 
ATOM     25  F   UNL     1      24.648   6.579  48.816  1.00  0.00    -0.166 F 
ATOM     26  F   UNL     1      24.502   4.517  48.596  1.00  0.00    -0.166 F 
ATOM     27  F   UNL     1      22.688   5.780  48.853  1.00  0.00    -0.166 F 
ENDBRANCH  16  24
ENDBRANCH  10  12
ENDBRANCH   1   8
BRANCH   6  28
ATOM     28  N   UNL     1      30.667  -0.484  52.253  1.00  0.00    -0.324 N 
ATOM     29  H   UNL     1      30.525  -1.296  51.636  1.00  0.00     0.170 HD
BRANCH  28  30
ATOM     30  C   UNL     1      31.934   0.089  52.382  1.00  0.00     0.227 A 
ATOM     31  N   UNL     1      32.331   1.054  53.202  1.00  0.00    -0.221 NA
ATOM     32  N   UNL     1      32.734  -0.465  51.436  1.00  0.00    -0.213 NA
ATOM     33  C   UNL     1      33.612   1.455  53.089  1.00  0.00     0.117 A 
ATOM     34  C   UNL     1      33.990  -0.011  51.340  1.00  0.00     0.077 A 
ATOM     35  C   UNL     1      34.447   0.957  52.163  1.00  0.00     0.049 A 
BRANCH  34  36
ATOM     36  C   UNL     1      34.835  -0.673  50.313  1.00  0.00     0.019 A 
ATOM     37  C   UNL     1      36.127  -0.211  50.014  1.00  0.00     0.013 A 
ATOM     38  C   UNL     1      34.350  -1.784  49.594  1.00  0.00     0.121 A 
ATOM     39  C   UNL     1      36.862  -0.854  49.027  1.00  0.00     0.021 A 
ATOM     40  N   UNL     1      35.051  -2.403  48.636  1.00  0.00    -0.264 NA
ATOM     41  C   UNL     1      36.294  -1.956  48.389  1.00  0.00     0.111 A 
ENDBRANCH  34  36
ENDBRANCH  28  30
ENDBRANCH   6  28
TORSDOF 7
ENDMDL
MODEL 2
REMARK VINA RESULT:   -14.172      2.224      3.678
REMARK INTER + INTRA:         -17.480
REMARK INTER:                 -16.260
REMARK INTRA:                  -1.220
REMARK CONF_INDEPENDENT:        2.088
REMARK UNBOUND:                -1.220
REMARK SMILES Cc1cn(-c2cc(NC(=O)c3ccc(C)c(Nc4nccc(-c5cccnc5)n4)c3)cc(C(F)(F)F)c2)cn1
REMARK SMILES IDX 11 1 12 2 13 3 14 4 15 5 16 6 30 7 9 8 10 9 8 10 7 12 6 13
REMARK SMILES IDX 31 14 5 15 32 16 37 17 4 18 3 19 38 20 2 21 39 22 1 23 33 24
REMARK SMILES IDX 34 25 35 26 36 27 17 28 18 30 19 31 29 32 20 33 22 34 21 35
REMARK SMILES IDX 23 36 24 37 28 38 25 39 27 40 26 41
REMARK H PARENT 8 11 17 29
ROOT
ATOM      1  C   UNL     1      28.252   1.606  53.636  1.00  0.00     0.042 A 
ATOM      2  C   UNL     1      28.046   1.038  54.902  1.00  0.00     0.014 A 
ATOM      3  C   UNL     1      28.806  -0.046  55.345  1.00  0.00     0.006 A 
ATOM      4  C   UNL     1      29.737  -0.656  54.519  1.00  0.00    -0.027 A 
ATOM      5  C   UNL     1      30.553  -1.842  55.013  1.00  0.00     0.046 C 
ATOM      6  C   UNL     1      29.873  -0.161  53.223  1.00  0.00     0.045 A 
ATOM      7  C   UNL     1      29.118   0.943  52.806  1.00  0.00     0.040 A 
ENDROOT
BRANCH   1   8
ATOM      8  C   UNL     1      27.414   2.665  53.040  1.00  0.00     0.255 C 
ATOM      9  O   UNL     1      27.869   3.194  52.055  1.00  0.00    -0.269 OA
ATOM     10  N   UNL     1      26.154   2.748  53.494  1.00  0.00    -0.322 N 
ATOM     11  H   UNL     1      25.892   2.116  54.263  1.00  0.00     0.170 HD
BRANCH  10  12
ATOM     12  C   UNL     1      25.171   3.608  53.021  1.00  0.00     0.044 A 
ATOM     13  C   UNL     1      25.087   3.928  51.643  1.00  0.00     0.052 A 
ATOM     14  C   UNL     1      24.311   4.277  53.918  1.00  0.00     0.039 A 
ATOM     15  C   UNL     1      24.095   4.785  51.156  1.00  0.00     0.049 A 
ATOM     16  C   UNL     1      23.287   5.133  53.418  1.00  0.00     0.060 A 
ATOM     17  C   UNL     1      23.221   5.397  52.048  1.00  0.00     0.039 A 
BRANCH  15  18
ATOM     18  N   UNL     1      23.977   5.075  49.789  1.00  0.00    -0.306 N 
ATOM     19  C   UNL     1      23.461   6.216  49.177  1.00  0.00     0.116 A 
ATOM     20  C   UNL     1      24.260   4.256  48.769  1.00  0.00     0.204 A 
ATOM     21  C   UNL     1      23.468   6.018  47.841  1.00  0.00     0.056 A 
ATOM     22  N   UNL     1      24.002   4.799  47.604  1.00  0.00    -0.242 NA
ATOM     23  C   UNL     1      23.025   6.972  46.758  1.00  0.00     0.068 C 
ENDBRANCH  15  18
BRANCH  16  24
ATOM     24  C   UNL     1      22.352   5.781  54.386  1.00  0.00     0.416 C 
ATOM     25  F   UNL     1      21.502   6.676  53.845  1.00  0.00    -0.166 F 
ATOM     26  F   UNL     1      21.517   4.892  54.911  1.00  0.00    -0.166 F 
ATOM     27  F   UNL     1      23.002   6.496  55.327  1.00  0.00    -0.166 F 
ENDBRANCH  16  24
ENDBRANCH  10  12
ENDBRANCH   1   8
BRANCH   6  28
ATOM     28  N   UNL     1      30.916  -0.653  52.428  1.00  0.00    -0.324 N 
ATOM     29  H   UNL     1      30.755  -1.450  51.795  1.00  0.00     0.170 HD
BRANCH  28  30
ATOM     30  C   UNL     1      32.175  -0.055  52.500  1.00  0.00     0.227 A 
ATOM     31  N   UNL     1      32.593   0.911  53.309  1.00  0.00    -0.221 NA
ATOM     32  N   UNL     1      32.939  -0.583  51.510  1.00  0.00    -0.213 NA
ATOM     33  C   UNL     1      33.858   1.340  53.136  1.00  0.00     0.117 A 
ATOM     34  C   UNL     1      34.179  -0.102  51.357  1.00  0.00     0.077 A 
ATOM     35  C   UNL     1      34.656   0.868  52.166  1.00  0.00     0.049 A 
BRANCH  34  36
ATOM     36  C   UNL     1      34.986  -0.737  50.283  1.00  0.00     0.019 A 
ATOM     37  C   UNL     1      36.277  -0.283  49.967  1.00  0.00     0.013 A 
ATOM     38  C   UNL     1      34.464  -1.812  49.536  1.00  0.00     0.121 A 
ATOM     39  C   UNL     1      36.975  -0.899  48.936  1.00  0.00     0.021 A 
ATOM     40  N   UNL     1      35.130  -2.404  48.536  1.00  0.00    -0.264 NA
ATOM     41  C   UNL     1      36.372  -1.966  48.272  1.00  0.00     0.111 A 
ENDBRANCH  34  36
ENDBRANCH  28  30
ENDBRANCH   6  28
TORSDOF 7
ENDMDL
MODEL 3
REMARK VINA RESULT:   -12.901      1.187      1.802
REMARK INTER + INTRA:         -16.128
REMARK INTER:                 -14.990
REMARK INTRA:                  -1.138
REMARK CONF_INDEPENDENT:        2.088
REMARK UNBOUND:                -1.138
REMARK SMILES Cc1cn(-c2cc(NC(=O)c3ccc(C)c(Nc4nccc(-c5cccnc5)n4)c3)cc(C(F)(F)F)c2)cn1
REMARK SMILES IDX 11 1 12 2 13 3 14 4 15 5 16 6 30 7 9 8 10 9 8 10 7 12 6 13
REMARK SMILES IDX 31 14 5 15 32 16 37 17 4 18 3 19 38 20 2 21 39 22 1 23 33 24
REMARK SMILES IDX 34 25 35 26 36 27 17 28 18 30 19 31 29 32 20 33 22 34 21 35
REMARK SMILES IDX 23 36 24 37 28 38 25 39 27 40 26 41
REMARK H PARENT 8 11 17 29
ROOT
ATOM      1  C   UNL     1      28.120   1.895  53.067  1.00  0.00     0.042 A 
ATOM      2  C   UNL     1      27.737   1.083  54.145  1.00  0.00     0.014 A 
ATOM      3  C   UNL     1      28.594   0.111  54.663  1.00  0.00     0.006 A 
ATOM      4  C   UNL     1      29.824  -0.148  54.080  1.00  0.00    -0.027 A 
ATOM      5  C   UNL     1      30.744  -1.217  54.651  1.00  0.00     0.046 C 
ATOM      6  C   UNL     1      30.166   0.584  52.944  1.00  0.00     0.045 A 
ATOM      7  C   UNL     1      29.303   1.573  52.455  1.00  0.00     0.040 A 
ENDROOT
BRANCH   1   8
ATOM      8  C   UNL     1      27.235   2.855  52.378  1.00  0.00     0.255 C 
ATOM      9  O   UNL     1      27.499   3.063  51.219  1.00  0.00    -0.269 OA
ATOM     10  N   UNL     1      26.109   3.190  53.024  1.00  0.00    -0.322 N 
ATOM     11  H   UNL     1      25.982   2.807  53.972  1.00  0.00     0.170 HD
BRANCH  10  12
ATOM     12  C   UNL     1      25.098   4.007  52.533  1.00  0.00     0.044 A 
ATOM     13  C   UNL     1      24.161   4.611  53.408  1.00  0.00     0.052 A 
ATOM     14  C   UNL     1      24.908   4.155  51.142  1.00  0.00     0.039 A 
ATOM     15  C   UNL     1      23.147   5.442  52.924  1.00  0.00     0.049 A 
ATOM     16  C   UNL     1      23.888   5.020  50.652  1.00  0.00     0.060 A 
ATOM     17  C   UNL     1      23.005   5.621  51.551  1.00  0.00     0.039 A 
BRANCH  15  18
ATOM     18  N   UNL     1      22.241   6.079  53.785  1.00  0.00    -0.306 N 
ATOM     19  C   UNL     1      21.557   7.280  53.604  1.00  0.00     0.116 A 
ATOM     20  C   UNL     1      21.911   5.698  55.024  1.00  0.00     0.204 A 
ATOM     21  C   UNL     1      20.861   7.543  54.731  1.00  0.00     0.056 A 
ATOM     22  N   UNL     1      21.070   6.525  55.595  1.00  0.00    -0.242 NA
ATOM     23  C   UNL     1      19.954   8.717  55.010  1.00  0.00     0.068 C 
ENDBRANCH  15  18
BRANCH  16  24
ATOM     24  C   UNL     1      23.748   5.206  49.176  1.00  0.00     0.416 C 
ATOM     25  F   UNL     1      22.922   6.204  48.803  1.00  0.00    -0.166 F 
ATOM     26  F   UNL     1      24.899   5.584  48.631  1.00  0.00    -0.166 F 
ATOM     27  F   UNL     1      23.222   4.122  48.569  1.00  0.00    -0.166 F 
ENDBRANCH  16  24
ENDBRANCH  10  12
ENDBRANCH   1   8
BRANCH   6  28
ATOM     28  N   UNL     1      31.465   0.456  52.435  1.00  0.00    -0.324 N 
ATOM     29  H   UNL     1      32.254   0.929  52.900  1.00  0.00     0.170 HD
BRANCH  28  30
ATOM     30  C   UNL     1      31.683  -0.318  51.294  1.00  0.00     0.227 A 
ATOM     31  N   UNL     1      30.794  -0.926  50.518  1.00  0.00    -0.221 NA
ATOM     32  N   UNL     1      33.025  -0.430  51.122  1.00  0.00    -0.213 NA
ATOM     33  C   UNL     1      31.280  -1.653  49.494  1.00  0.00     0.117 A 
ATOM     34  C   UNL     1      33.461  -1.188  50.109  1.00  0.00     0.077 A 
ATOM     35  C   UNL     1      32.596  -1.813  49.282  1.00  0.00     0.049 A 
BRANCH  34  36
ATOM     36  C   UNL     1      34.937  -1.250  49.942  1.00  0.00     0.019 A 
ATOM     37  C   UNL     1      35.559  -2.332  49.299  1.00  0.00     0.013 A 
ATOM     38  C   UNL     1      35.757  -0.221  50.444  1.00  0.00     0.121 A 
ATOM     39  C   UNL     1      36.944  -2.349  49.194  1.00  0.00     0.021 A 
ATOM     40  N   UNL     1      37.093  -0.236  50.353  1.00  0.00    -0.264 NA
ATOM     41  C   UNL     1      37.661  -1.270  49.711  1.00  0.00     0.111 A 
ENDBRANCH  34  36
ENDBRANCH  28  30
ENDBRANCH   6  28
TORSDOF 7
ENDMDL
MODEL 4
REMARK VINA RESULT:   -12.374      1.587      3.693
REMARK INTER + INTRA:         -16.074
REMARK INTER:                 -14.462
REMARK INTRA:                  -1.612
REMARK CONF_INDEPENDENT:        2.088
REMARK UNBOUND:                -1.612
REMARK SMILES Cc1cn(-c2cc(NC(=O)c3ccc(C)c(Nc4nccc(-c5cccnc5)n4)c3)cc(C(F)(F)F)c2)cn1
REMARK SMILES IDX 11 1 12 2 13 3 14 4 15 5 16 6 30 7 9 8 10 9 8 10 7 12 6 13
REMARK SMILES IDX 31 14 5 15 32 16 37 17 4 18 3 19 38 20 2 21 39 22 1 23 33 24
REMARK SMILES IDX 34 25 35 26 36 27 17 28 18 30 19 31 29 32 20 33 22 34 21 35
REMARK SMILES IDX 23 36 24 37 28 38 25 39 27 40 26 41
REMARK H PARENT 8 11 17 29
ROOT
ATOM      1  C   UNL     1      27.789   1.621  53.016  1.00  0.00     0.042 A 
ATOM      2  C   UNL     1      27.459   0.981  54.220  1.00  0.00     0.014 A 
ATOM      3  C   UNL     1      28.160  -0.142  54.662  1.00  0.00     0.006 A 
ATOM      4  C   UNL     1      29.156  -0.717  53.890  1.00  0.00    -0.027 A 
ATOM      5  C   UNL     1      29.908  -1.946  54.381  1.00  0.00     0.046 C 
ATOM      6  C   UNL     1      29.419  -0.147  52.645  1.00  0.00     0.045 A 
ATOM      7  C   UNL     1      28.721   0.994  52.230  1.00  0.00     0.040 A 
ENDROOT
BRANCH   1   8
ATOM      8  C   UNL     1      27.024   2.730  52.413  1.00  0.00     0.255 C 
ATOM      9  O   UNL     1      27.368   3.054  51.302  1.00  0.00    -0.269 OA
ATOM     10  N   UNL     1      25.893   3.080  53.044  1.00  0.00    -0.322 N 
ATOM     11  H   UNL     1      25.682   2.597  53.929  1.00  0.00     0.170 HD
BRANCH  10  12
ATOM     12  C   UNL     1      24.979   4.034  52.612  1.00  0.00     0.044 A 
ATOM     13  C   UNL     1      24.046   4.605  53.512  1.00  0.00     0.052 A 
ATOM     14  C   UNL     1      24.881   4.366  51.243  1.00  0.00     0.039 A 
ATOM     15  C   UNL     1      23.130   5.573  53.089  1.00  0.00     0.049 A 
ATOM     16  C   UNL     1      23.962   5.368  50.819  1.00  0.00     0.060 A 
ATOM     17  C   UNL     1      23.079   5.928  51.745  1.00  0.00     0.039 A 
BRANCH  15  18
ATOM     18  N   UNL     1      22.229   6.176  53.981  1.00  0.00    -0.306 N 
ATOM     19  C   UNL     1      21.491   7.347  53.821  1.00  0.00     0.116 A 
ATOM     20  C   UNL     1      21.960   5.787  55.232  1.00  0.00     0.204 A 
ATOM     21  C   UNL     1      20.825   7.586  54.972  1.00  0.00     0.056 A 
ATOM     22  N   UNL     1      21.106   6.582  55.831  1.00  0.00    -0.242 NA
ATOM     23  C   UNL     1      19.882   8.724  55.280  1.00  0.00     0.068 C 
ENDBRANCH  15  18
BRANCH  16  24
ATOM     24  C   UNL     1      23.921   5.743  49.373  1.00  0.00     0.416 C 
ATOM     25  F   UNL     1      22.693   6.020  48.891  1.00  0.00    -0.166 F 
ATOM     26  F   UNL     1      24.564   6.884  49.158  1.00  0.00    -0.166 F 
ATOM     27  F   UNL     1      24.354   4.747  48.572  1.00  0.00    -0.166 F 
ENDBRANCH  16  24
ENDBRANCH  10  12
ENDBRANCH   1   8
BRANCH   6  28
ATOM     28  N   UNL     1      30.525  -0.608  51.920  1.00  0.00    -0.324 N 
ATOM     29  H   UNL     1      30.442  -1.441  51.320  1.00  0.00     0.170 HD
BRANCH  28  30
ATOM     30  C   UNL     1      31.742   0.070  52.018  1.00  0.00     0.227 A 
ATOM     31  N   UNL     1      32.843  -0.086  51.294  1.00  0.00    -0.221 NA
ATOM     32  N   UNL     1      31.659   0.914  53.079  1.00  0.00    -0.213 NA
ATOM     33  C   UNL     1      33.902   0.675  51.630  1.00  0.00     0.117 A 
ATOM     34  C   UNL     1      32.747   1.626  53.394  1.00  0.00     0.077 A 
ATOM     35  C   UNL     1      33.885   1.515  52.676  1.00  0.00     0.049 A 
BRANCH  34  36
ATOM     36  C   UNL     1      32.594   2.560  54.540  1.00  0.00     0.019 A 
ATOM     37  C   UNL     1      31.519   2.454  55.437  1.00  0.00     0.013 A 
ATOM     38  C   UNL     1      33.525   3.596  54.747  1.00  0.00     0.121 A 
ATOM     39  C   UNL     1      31.413   3.371  56.475  1.00  0.00     0.021 A 
ATOM     40  N   UNL     1      33.424   4.488  55.741  1.00  0.00    -0.264 NA
ATOM     41  C   UNL     1      32.400   4.347  56.599  1.00  0.00     0.111 A 
ENDBRANCH  34  36
ENDBRANCH  28  30
ENDBRANCH   6  28
TORSDOF 7
ENDMDL
MODEL 5
REMARK VINA RESULT:   -12.354      1.318      1.922
REMARK INTER + INTRA:         -15.832
REMARK INTER:                 -14.442
REMARK INTRA:                  -1.391
REMARK CONF_INDEPENDENT:        2.088
REMARK UNBOUND:                -1.391
REMARK SMILES Cc1cn(-c2cc(NC(=O)c3ccc(C)c(Nc4nccc(-c5cccnc5)n4)c3)cc(C(F)(F)F)c2)cn1
REMARK SMILES IDX 11 1 12 2 13 3 14 4 15 5 16 6 30 7 9 8 10 9 8 10 7 12 6 13
REMARK SMILES IDX 31 14 5 15 32 16 37 17 4 18 3 19 38 20 2 21 39 22 1 23 33 24
REMARK SMILES IDX 34 25 35 26 36 27 17 28 18 30 19 31 29 32 20 33 22 34 21 35
REMARK SMILES IDX 23 36 24 37 28 38 25 39 27 40 26 41
REMARK H PARENT 8 11 17 29
ROOT
ATOM      1  C   UNL     1      27.995   1.920  53.065  1.00  0.00     0.042 A 
ATOM      2  C   UNL     1      27.644   0.595  53.361  1.00  0.00     0.014 A 
ATOM      3  C   UNL     1      28.531  -0.265  54.010  1.00  0.00     0.006 A 
ATOM      4  C   UNL     1      29.824   0.131  54.312  1.00  0.00    -0.027 A 
ATOM      5  C   UNL     1      30.784  -0.820  55.013  1.00  0.00     0.046 C 
ATOM      6  C   UNL     1      30.213   1.413  53.927  1.00  0.00     0.045 A 
ATOM      7  C   UNL     1      29.300   2.269  53.300  1.00  0.00     0.040 A 
ENDROOT
BRANCH   1   8
ATOM      8  C   UNL     1      27.171   2.855  52.273  1.00  0.00     0.255 C 
ATOM      9  O   UNL     1      27.414   2.885  51.091  1.00  0.00    -0.269 OA
ATOM     10  N   UNL     1      26.097   3.367  52.893  1.00  0.00    -0.322 N 
ATOM     11  H   UNL     1      25.970   3.124  53.885  1.00  0.00     0.170 HD
BRANCH  10  12
ATOM     12  C   UNL     1      25.143   4.197  52.318  1.00  0.00     0.044 A 
ATOM     13  C   UNL     1      24.208   4.896  53.121  1.00  0.00     0.052 A 
ATOM     14  C   UNL     1      25.004   4.267  50.914  1.00  0.00     0.039 A 
ATOM     15  C   UNL     1      23.251   5.740  52.553  1.00  0.00     0.049 A 
ATOM     16  C   UNL     1      24.042   5.145  50.338  1.00  0.00     0.060 A 
ATOM     17  C   UNL     1      23.160   5.840  51.168  1.00  0.00     0.039 A 
BRANCH  15  18
ATOM     18  N   UNL     1      22.348   6.470  53.342  1.00  0.00    -0.306 N 
ATOM     19  C   UNL     1      21.791   7.724  53.102  1.00  0.00     0.116 A 
ATOM     20  C   UNL     1      21.900   6.140  54.559  1.00  0.00     0.204 A 
ATOM     21  C   UNL     1      21.045   8.067  54.175  1.00  0.00     0.056 A 
ATOM     22  N   UNL     1      21.100   7.048  55.062  1.00  0.00    -0.242 NA
ATOM     23  C   UNL     1      20.232   9.322  54.378  1.00  0.00     0.068 C 
ENDBRANCH  15  18
BRANCH  16  24
ATOM     24  C   UNL     1      23.958   5.245  48.849  1.00  0.00     0.416 C 
ATOM     25  F   UNL     1      24.526   6.346  48.319  1.00  0.00    -0.166 F 
ATOM     26  F   UNL     1      24.648   4.272  48.266  1.00  0.00    -0.166 F 
ATOM     27  F   UNL     1      22.684   5.308  48.411  1.00  0.00    -0.166 F 
ENDBRANCH  16  24
ENDBRANCH  10  12
ENDBRANCH   1   8
BRANCH   6  28
ATOM     28  N   UNL     1      31.455   1.892  54.364  1.00  0.00    -0.324 N 
ATOM     29  H   UNL     1      31.504   2.621  55.090  1.00  0.00     0.170 HD
BRANCH  28  30
ATOM     30  C   UNL     1      32.626   1.372  53.809  1.00  0.00     0.227 A 
ATOM     31  N   UNL     1      33.883   1.562  54.189  1.00  0.00    -0.221 NA
ATOM     32  N   UNL     1      32.277   0.660  52.706  1.00  0.00    -0.213 NA
ATOM     33  C   UNL     1      34.836   0.972  53.443  1.00  0.00     0.117 A 
ATOM     34  C   UNL     1      33.262   0.120  51.978  1.00  0.00     0.077 A 
ATOM     35  C   UNL     1      34.556   0.269  52.334  1.00  0.00     0.049 A 
BRANCH  34  36
ATOM     36  C   UNL     1      32.827  -0.678  50.802  1.00  0.00     0.019 A 
ATOM     37  C   UNL     1      31.468  -0.877  50.510  1.00  0.00     0.013 A 
ATOM     38  C   UNL     1      33.778  -1.274  49.951  1.00  0.00     0.121 A 
ATOM     39  C   UNL     1      31.121  -1.653  49.412  1.00  0.00     0.021 A 
ATOM     40  N   UNL     1      33.449  -2.030  48.896  1.00  0.00    -0.264 NA
ATOM     41  C   UNL     1      32.143  -2.183  48.625  1.00  0.00     0.111 A 
ENDBRANCH  34  36
ENDBRANCH  28  30
ENDBRANCH   6  28
TORSDOF 7
ENDMDL
MODEL 6
REMARK VINA RESULT:   -11.580      2.577      3.938
REMARK INTER + INTRA:         -14.851
REMARK INTER:                 -13.668
REMARK INTRA:                  -1.183
REMARK CONF_INDEPENDENT:        2.088
REMARK UNBOUND:                -1.183
REMARK SMILES Cc1cn(-c2cc(NC(=O)c3ccc(C)c(Nc4nccc(-c5cccnc5)n4)c3)cc(C(F)(F)F)c2)cn1
REMARK SMILES IDX 11 1 12 2 13 3 14 4 15 5 16 6 30 7 9 8 10 9 8 10 7 12 6 13
REMARK SMILES IDX 31 14 5 15 32 16 37 17 4 18 3 19 38 20 2 21 39 22 1 23 33 24
REMARK SMILES IDX 34 25 35 26 36 27 17 28 18 30 19 31 29 32 20 33 22 34 21 35
REMARK SMILES IDX 23 36 24 37 28 38 25 39 27 40 26 41
REMARK H PARENT 8 11 17 29
ROOT
ATOM      1  C   UNL     1      28.488   1.816  53.184  1.00  0.00     0.042 A 
ATOM      2  C   UNL     1      27.994   0.792  54.006  1.00  0.00     0.014 A 
ATOM      3  C   UNL     1      28.745  -0.355  54.268  1.00  0.00     0.006 A 
ATOM      4  C   UNL     1      29.973  -0.564  53.660  1.00  0.00    -0.027 A 
ATOM      5  C   UNL     1      30.778  -1.824  53.949  1.00  0.00     0.046 C 
ATOM      6  C   UNL     1      30.422   0.402  52.761  1.00  0.00     0.045 A 
ATOM      7  C   UNL     1      29.665   1.558  52.531  1.00  0.00     0.040 A 
ENDROOT
BRANCH   1   8
ATOM      8  C   UNL     1      27.715   2.998  52.753  1.00  0.00     0.255 C 
ATOM      9  O   UNL     1      28.117   3.545  51.756  1.00  0.00    -0.269 OA
ATOM     10  N   UNL     1      26.529   3.181  53.354  1.00  0.00    -0.322 N 
ATOM     11  H   UNL     1      26.282   2.526  54.110  1.00  0.00     0.170 HD
BRANCH  10  12
ATOM     12  C   UNL     1      25.605   4.172  53.050  1.00  0.00     0.044 A 
ATOM     13  C   UNL     1      25.195   4.399  51.713  1.00  0.00     0.052 A 
ATOM     14  C   UNL     1      25.143   5.055  54.051  1.00  0.00     0.039 A 
ATOM     15  C   UNL     1      24.258   5.387  51.399  1.00  0.00     0.049 A 
ATOM     16  C   UNL     1      24.172   6.046  53.733  1.00  0.00     0.060 A 
ATOM     17  C   UNL     1      23.773   6.216  52.405  1.00  0.00     0.039 A 
BRANCH  15  18
ATOM     18  N   UNL     1      23.815   5.592  50.084  1.00  0.00    -0.306 N 
ATOM     19  C   UNL     1      22.561   5.334  49.532  1.00  0.00     0.116 A 
ATOM     20  C   UNL     1      24.551   6.003  49.044  1.00  0.00     0.204 A 
ATOM     21  C   UNL     1      22.618   5.606  48.210  1.00  0.00     0.056 A 
ATOM     22  N   UNL     1      23.862   6.054  47.931  1.00  0.00    -0.242 NA
ATOM     23  C   UNL     1      21.508   5.500  47.191  1.00  0.00     0.068 C 
ENDBRANCH  15  18
BRANCH  16  24
ATOM     24  C   UNL     1      23.656   6.928  54.824  1.00  0.00     0.416 C 
ATOM     25  F   UNL     1      23.515   6.327  56.022  1.00  0.00    -0.166 F 
ATOM     26  F   UNL     1      24.520   7.897  55.102  1.00  0.00    -0.166 F 
ATOM     27  F   UNL     1      22.419   7.398  54.561  1.00  0.00    -0.166 F 
ENDBRANCH  16  24
ENDBRANCH  10  12
ENDBRANCH   1   8
BRANCH   6  28
ATOM     28  N   UNL     1      31.726   0.293  52.261  1.00  0.00    -0.324 N 
ATOM     29  H   UNL     1      32.501   0.796  52.717  1.00  0.00     0.170 HD
BRANCH  28  30
ATOM     30  C   UNL     1      31.967  -0.504  51.140  1.00  0.00     0.227 A 
ATOM     31  N   UNL     1      31.109  -1.227  50.433  1.00  0.00    -0.221 NA
ATOM     32  N   UNL     1      33.305  -0.492  50.907  1.00  0.00    -0.213 NA
ATOM     33  C   UNL     1      31.618  -1.946  49.414  1.00  0.00     0.117 A 
ATOM     34  C   UNL     1      33.768  -1.247  49.903  1.00  0.00     0.077 A 
ATOM     35  C   UNL     1      32.932  -1.987  49.143  1.00  0.00     0.049 A 
BRANCH  34  36
ATOM     36  C   UNL     1      35.233  -1.172  49.667  1.00  0.00     0.019 A 
ATOM     37  C   UNL     1      35.875  -2.025  48.754  1.00  0.00     0.013 A 
ATOM     38  C   UNL     1      36.025  -0.244  50.371  1.00  0.00     0.121 A 
ATOM     39  C   UNL     1      37.251  -1.927  48.593  1.00  0.00     0.021 A 
ATOM     40  N   UNL     1      37.353  -0.151  50.225  1.00  0.00    -0.264 NA
ATOM     41  C   UNL     1      37.937  -0.961  49.327  1.00  0.00     0.111 A 
ENDBRANCH  34  36
ENDBRANCH  28  30
ENDBRANCH   6  28
TORSDOF 7
ENDMDL
MODEL 7
REMARK VINA RESULT:   -11.549      4.127     11.206
REMARK INTER + INTRA:         -14.808
REMARK INTER:                 -13.637
REMARK INTRA:                  -1.171
REMARK CONF_INDEPENDENT:        2.088
REMARK UNBOUND:                -1.171
REMARK SMILES Cc1cn(-c2cc(NC(=O)c3ccc(C)c(Nc4nccc(-c5cccnc5)n4)c3)cc(C(F)(F)F)c2)cn1
REMARK SMILES IDX 11 1 12 2 13 3 14 4 15 5 16 6 30 7 9 8 10 9 8 10 7 12 6 13
REMARK SMILES IDX 31 14 5 15 32 16 37 17 4 18 3 19 38 20 2 21 39 22 1 23 33 24
REMARK SMILES IDX 34 25 35 26 36 27 17 28 18 30 19 31 29 32 20 33 22 34 21 35
REMARK SMILES IDX 23 36 24 37 28 38 25 39 27 40 26 41
REMARK H PARENT 8 11 17 29
ROOT
ATOM      1  C   UNL     1      25.849   3.881  52.078  1.00  0.00     0.042 A 
ATOM      2  C   UNL     1      25.257   4.397  50.916  1.00  0.00     0.014 A 
ATOM      3  C   UNL     1      24.138   5.229  50.978  1.00  0.00     0.006 A 
ATOM      4  C   UNL     1      23.518   5.510  52.185  1.00  0.00    -0.027 A 
ATOM      5  C   UNL     1      22.294   6.413  52.237  1.00  0.00     0.046 C 
ATOM      6  C   UNL     1      24.040   4.916  53.333  1.00  0.00     0.045 A 
ATOM      7  C   UNL     1      25.179   4.105  53.253  1.00  0.00     0.040 A 
ENDROOT
BRANCH   1   8
ATOM      8  C   UNL     1      26.950   2.897  52.099  1.00  0.00     0.255 C 
ATOM      9  O   UNL     1      27.641   2.873  51.110  1.00  0.00    -0.269 OA
ATOM     10  N   UNL     1      27.215   2.330  53.285  1.00  0.00    -0.322 N 
ATOM     11  H   UNL     1      26.592   2.572  54.069  1.00  0.00     0.170 HD
BRANCH  10  12
ATOM     12  C   UNL     1      28.252   1.446  53.554  1.00  0.00     0.044 A 
ATOM     13  C   UNL     1      29.556   1.682  53.054  1.00  0.00     0.052 A 
ATOM     14  C   UNL     1      28.003   0.231  54.229  1.00  0.00     0.039 A 
ATOM     15  C   UNL     1      30.609   0.803  53.327  1.00  0.00     0.049 A 
ATOM     16  C   UNL     1      29.080  -0.652  54.525  1.00  0.00     0.060 A 
ATOM     17  C   UNL     1      30.358  -0.366  54.038  1.00  0.00     0.039 A 
BRANCH  15  18
ATOM     18  N   UNL     1      31.913   1.049  52.872  1.00  0.00    -0.306 N 
ATOM     19  C   UNL     1      32.543   0.578  51.721  1.00  0.00     0.116 A 
ATOM     20  C   UNL     1      32.870   1.731  53.513  1.00  0.00     0.204 A 
ATOM     21  C   UNL     1      33.825   1.003  51.738  1.00  0.00     0.056 A 
ATOM     22  N   UNL     1      34.000   1.750  52.850  1.00  0.00    -0.242 NA
ATOM     23  C   UNL     1      34.896   0.765  50.701  1.00  0.00     0.068 C 
ENDBRANCH  15  18
BRANCH  16  24
ATOM     24  C   UNL     1      28.798  -1.902  55.293  1.00  0.00     0.416 C 
ATOM     25  F   UNL     1      27.894  -2.727  54.728  1.00  0.00    -0.166 F 
ATOM     26  F   UNL     1      29.875  -2.677  55.356  1.00  0.00    -0.166 F 
ATOM     27  F   UNL     1      28.274  -1.649  56.510  1.00  0.00    -0.166 F 
ENDBRANCH  16  24
ENDBRANCH  10  12
ENDBRANCH   1   8
BRANCH   6  28
ATOM     28  N   UNL     1      23.534   5.313  54.578  1.00  0.00    -0.324 N 
ATOM     29  H   UNL     1      22.847   4.725  55.070  1.00  0.00     0.170 HD
BRANCH  28  30
ATOM     30  C   UNL     1      23.969   6.512  55.146  1.00  0.00     0.227 A 
ATOM     31  N   UNL     1      23.963   7.731  54.623  1.00  0.00    -0.221 NA
ATOM     32  N   UNL     1      24.504   6.222  56.360  1.00  0.00    -0.213 NA
ATOM     33  C   UNL     1      24.487   8.716  55.376  1.00  0.00     0.117 A 
ATOM     34  C   UNL     1      25.042   7.229  57.058  1.00  0.00     0.077 A 
ATOM     35  C   UNL     1      25.044   8.490  56.577  1.00  0.00     0.049 A 
BRANCH  34  36
ATOM     36  C   UNL     1      25.583   6.866  58.395  1.00  0.00     0.019 A 
ATOM     37  C   UNL     1      24.755   6.786  59.526  1.00  0.00     0.013 A 
ATOM     38  C   UNL     1      26.957   6.606  58.564  1.00  0.00     0.121 A 
ATOM     39  C   UNL     1      25.320   6.467  60.754  1.00  0.00     0.021 A 
ATOM     40  N   UNL     1      27.508   6.306  59.747  1.00  0.00    -0.264 NA
ATOM     41  C   UNL     1      26.689   6.211  60.807  1.00  0.00     0.111 A 
ENDBRANCH  34  36
ENDBRANCH  28  30
ENDBRANCH   6  28
TORSDOF 7
ENDMDL
MODEL 8
REMARK VINA RESULT:   -11.486      2.049      3.026
REMARK INTER + INTRA:         -14.886
REMARK INTER:                 -13.574
REMARK INTRA:                  -1.311
REMARK CONF_INDEPENDENT:        2.088
REMARK UNBOUND:                -1.311
REMARK SMILES Cc1cn(-c2cc(NC(=O)c3ccc(C)c(Nc4nccc(-c5cccnc5)n4)c3)cc(C(F)(F)F)c2)cn1
REMARK SMILES IDX 11 1 12 2 13 3 14 4 15 5 16 6 30 7 9 8 10 9 8 10 7 12 6 13
REMARK SMILES IDX 31 14 5 15 32 16 37 17 4 18 3 19 38 20 2 21 39 22 1 23 33 24
REMARK SMILES IDX 34 25 35 26 36 27 17 28 18 30 19 31 29 32 20 33 22 34 21 35
REMARK SMILES IDX 23 36 24 37 28 38 25 39 27 40 26 41
REMARK H PARENT 8 11 17 29
ROOT
ATOM      1  C   UNL     1      27.000   2.420  52.396  1.00  0.00     0.042 A 
ATOM      2  C   UNL     1      27.148   1.047  52.143  1.00  0.00     0.014 A 
ATOM      3  C   UNL     1      27.918   0.234  52.974  1.00  0.00     0.006 A 
ATOM      4  C   UNL     1      28.636   0.764  54.034  1.00  0.00    -0.027 A 
ATOM      5  C   UNL     1      29.479  -0.134  54.928  1.00  0.00     0.046 C 
ATOM      6  C   UNL     1      28.576   2.143  54.229  1.00  0.00     0.045 A 
ATOM      7  C   UNL     1      27.777   2.939  53.398  1.00  0.00     0.040 A 
ENDROOT
BRANCH   1   8
ATOM      8  C   UNL     1      26.312   3.373  51.503  1.00  0.00     0.255 C 
ATOM      9  O   UNL     1      26.521   3.221  50.324  1.00  0.00    -0.269 OA
ATOM     10  N   UNL     1      25.353   4.123  52.065  1.00  0.00    -0.322 N 
ATOM     11  H   UNL     1      25.218   4.025  53.081  1.00  0.00     0.170 HD
BRANCH  10  12
ATOM     12  C   UNL     1      24.526   5.021  51.401  1.00  0.00     0.044 A 
ATOM     13  C   UNL     1      23.828   6.028  52.112  1.00  0.00     0.052 A 
ATOM     14  C   UNL     1      24.267   4.874  50.021  1.00  0.00     0.039 A 
ATOM     15  C   UNL     1      23.001   6.942  51.453  1.00  0.00     0.049 A 
ATOM     16  C   UNL     1      23.442   5.819  49.347  1.00  0.00     0.060 A 
ATOM     17  C   UNL     1      22.797   6.816  50.082  1.00  0.00     0.039 A 
BRANCH  15  18
ATOM     18  N   UNL     1      22.339   7.969  52.142  1.00  0.00    -0.306 N 
ATOM     19  C   UNL     1      21.504   7.881  53.254  1.00  0.00     0.116 A 
ATOM     20  C   UNL     1      22.301   9.264  51.807  1.00  0.00     0.204 A 
ATOM     21  C   UNL     1      21.024   9.115  53.521  1.00  0.00     0.056 A 
ATOM     22  N   UNL     1      21.560   9.972  52.624  1.00  0.00    -0.242 NA
ATOM     23  C   UNL     1      20.098   9.530  54.638  1.00  0.00     0.068 C 
ENDBRANCH  15  18
BRANCH  16  24
ATOM     24  C   UNL     1      23.234   5.674  47.874  1.00  0.00     0.416 C 
ATOM     25  F   UNL     1      23.509   6.777  47.150  1.00  0.00    -0.166 F 
ATOM     26  F   UNL     1      24.078   4.788  47.358  1.00  0.00    -0.166 F 
ATOM     27  F   UNL     1      21.950   5.406  47.562  1.00  0.00    -0.166 F 
ENDBRANCH  16  24
ENDBRANCH  10  12
ENDBRANCH   1   8
BRANCH   6  28
ATOM     28  N   UNL     1      29.159   2.679  55.384  1.00  0.00    -0.324 N 
ATOM     29  H   UNL     1      28.583   2.863  56.219  1.00  0.00     0.170 HD
BRANCH  28  30
ATOM     30  C   UNL     1      30.526   2.963  55.397  1.00  0.00     0.227 A 
ATOM     31  N   UNL     1      31.180   3.879  56.100  1.00  0.00    -0.221 NA
ATOM     32  N   UNL     1      31.120   2.168  54.470  1.00  0.00    -0.213 NA
ATOM     33  C   UNL     1      32.506   3.972  55.888  1.00  0.00     0.117 A 
ATOM     34  C   UNL     1      32.434   2.320  54.271  1.00  0.00     0.077 A 
ATOM     35  C   UNL     1      33.147   3.225  54.975  1.00  0.00     0.049 A 
BRANCH  34  36
ATOM     36  C   UNL     1      33.043   1.402  53.272  1.00  0.00     0.019 A 
ATOM     37  C   UNL     1      32.274   0.800  52.263  1.00  0.00     0.013 A 
ATOM     38  C   UNL     1      34.417   1.100  53.323  1.00  0.00     0.121 A 
ATOM     39  C   UNL     1      32.892  -0.068  51.372  1.00  0.00     0.021 A 
ATOM     40  N   UNL     1      35.017   0.257  52.472  1.00  0.00    -0.264 NA
ATOM     41  C   UNL     1      34.264  -0.285  51.502  1.00  0.00     0.111 A 
ENDBRANCH  34  36
ENDBRANCH  28  30
ENDBRANCH   6  28
TORSDOF 7
ENDMDL
MODEL 9
REMARK VINA RESULT:   -11.466      3.745     11.783
REMARK INTER + INTRA:         -14.723
REMARK INTER:                 -13.554
REMARK INTRA:                  -1.169
REMARK CONF_INDEPENDENT:        2.088
REMARK UNBOUND:                -1.169
REMARK SMILES Cc1cn(-c2cc(NC(=O)c3ccc(C)c(Nc4nccc(-c5cccnc5)n4)c3)cc(C(F)(F)F)c2)cn1
REMARK SMILES IDX 11 1 12 2 13 3 14 4 15 5 16 6 30 7 9 8 10 9 8 10 7 12 6 13
REMARK SMILES IDX 31 14 5 15 32 16 37 17 4 18 3 19 38 20 2 21 39 22 1 23 33 24
REMARK SMILES IDX 34 25 35 26 36 27 17 28 18 30 19 31 29 32 20 33 22 34 21 35
REMARK SMILES IDX 23 36 24 37 28 38 25 39 27 40 26 41
REMARK H PARENT 8 11 17 29
ROOT
ATOM      1  C   UNL     1      25.914   3.815  51.899  1.00  0.00     0.042 A 
ATOM      2  C   UNL     1      25.281   4.236  50.719  1.00  0.00     0.014 A 
ATOM      3  C   UNL     1      24.153   5.057  50.752  1.00  0.00     0.006 A 
ATOM      4  C   UNL     1      23.564   5.421  51.953  1.00  0.00    -0.027 A 
ATOM      5  C   UNL     1      22.330   6.311  51.973  1.00  0.00     0.046 C 
ATOM      6  C   UNL     1      24.127   4.921  53.126  1.00  0.00     0.045 A 
ATOM      7  C   UNL     1      25.274   4.119  53.072  1.00  0.00     0.040 A 
ENDROOT
BRANCH   1   8
ATOM      8  C   UNL     1      27.028   2.849  51.960  1.00  0.00     0.255 C 
ATOM      9  O   UNL     1      27.766   2.848  51.005  1.00  0.00    -0.269 OA
ATOM     10  N   UNL     1      27.245   2.271  53.151  1.00  0.00    -0.322 N 
ATOM     11  H   UNL     1      26.582   2.493  53.906  1.00  0.00     0.170 HD
BRANCH  10  12
ATOM     12  C   UNL     1      28.283   1.400  53.458  1.00  0.00     0.044 A 
ATOM     13  C   UNL     1      29.597   1.640  52.987  1.00  0.00     0.052 A 
ATOM     14  C   UNL     1      28.027   0.192  54.143  1.00  0.00     0.039 A 
ATOM     15  C   UNL     1      30.650   0.774  53.299  1.00  0.00     0.049 A 
ATOM     16  C   UNL     1      29.104  -0.677  54.479  1.00  0.00     0.060 A 
ATOM     17  C   UNL     1      30.391  -0.386  54.021  1.00  0.00     0.039 A 
BRANCH  15  18
ATOM     18  N   UNL     1      31.963   1.026  52.873  1.00  0.00    -0.306 N 
ATOM     19  C   UNL     1      32.644   0.500  51.777  1.00  0.00     0.116 A 
ATOM     20  C   UNL     1      32.880   1.771  53.502  1.00  0.00     0.204 A 
ATOM     21  C   UNL     1      33.914   0.959  51.809  1.00  0.00     0.056 A 
ATOM     22  N   UNL     1      34.032   1.778  52.878  1.00  0.00    -0.242 NA
ATOM     23  C   UNL     1      35.026   0.684  50.826  1.00  0.00     0.068 C 
ENDBRANCH  15  18
BRANCH  16  24
ATOM     24  C   UNL     1      28.813  -1.919  55.258  1.00  0.00     0.416 C 
ATOM     25  F   UNL     1      27.933  -2.761  54.680  1.00  0.00    -0.166 F 
ATOM     26  F   UNL     1      29.895  -2.681  55.362  1.00  0.00    -0.166 F 
ATOM     27  F   UNL     1      28.252  -1.653  56.456  1.00  0.00    -0.166 F 
ENDBRANCH  16  24
ENDBRANCH  10  12
ENDBRANCH   1   8
BRANCH   6  28
ATOM     28  N   UNL     1      23.651   5.404  54.352  1.00  0.00    -0.324 N 
ATOM     29  H   UNL     1      22.684   5.208  54.647  1.00  0.00     0.170 HD
BRANCH  28  30
ATOM     30  C   UNL     1      24.499   6.152  55.171  1.00  0.00     0.227 A 
ATOM     31  N   UNL     1      25.800   6.379  55.037  1.00  0.00    -0.221 NA
ATOM     32  N   UNL     1      23.772   6.580  56.235  1.00  0.00    -0.213 NA
ATOM     33  C   UNL     1      26.390   7.107  56.003  1.00  0.00     0.117 A 
ATOM     34  C   UNL     1      24.409   7.273  57.186  1.00  0.00     0.077 A 
ATOM     35  C   UNL     1      25.728   7.545  57.086  1.00  0.00     0.049 A 
BRANCH  34  36
ATOM     36  C   UNL     1      23.563   7.748  58.311  1.00  0.00     0.019 A 
ATOM     37  C   UNL     1      22.282   7.221  58.541  1.00  0.00     0.013 A 
ATOM     38  C   UNL     1      24.023   8.761  59.174  1.00  0.00     0.121 A 
ATOM     39  C   UNL     1      21.525   7.722  59.593  1.00  0.00     0.021 A 
ATOM     40  N   UNL     1      23.295   9.253  60.185  1.00  0.00    -0.264 NA
ATOM     41  C   UNL     1      22.084   8.714  60.398  1.00  0.00     0.111 A 
ENDBRANCH  34  36
ENDBRANCH  28  30
ENDBRANCH   6  28
TORSDOF 7
ENDMDL
MODEL 10
REMARK VINA RESULT:   -11.049      1.651      2.445
REMARK INTER + INTRA:         -14.315
REMARK INTER:                 -13.137
REMARK INTRA:                  -1.178
REMARK CONF_INDEPENDENT:        2.088
REMARK UNBOUND:                -1.178
REMARK SMILES Cc1cn(-c2cc(NC(=O)c3ccc(C)c(Nc4nccc(-c5cccnc5)n4)c3)cc(C(F)(F)F)c2)cn1
REMARK SMILES IDX 11 1 12 2 13 3 14 4 15 5 16 6 30 7 9 8 10 9 8 10 7 12 6 13
REMARK SMILES IDX 31 14 5 15 32 16 37 17 4 18 3 19 38 20 2 21 39 22 1 23 33 24
REMARK SMILES IDX 34 25 35 26 36 27 17 28 18 30 19 31 29 32 20 33 22 34 21 35
REMARK SMILES IDX 23 36 24 37 28 38 25 39 27 40 26 41
REMARK H PARENT 8 11 17 29
ROOT
ATOM      1  C   UNL     1      27.068   2.350  52.457  1.00  0.00     0.042 A 
ATOM      2  C   UNL     1      27.203   1.221  51.636  1.00  0.00     0.014 A 
ATOM      3  C   UNL     1      28.136   0.223  51.920  1.00  0.00     0.006 A 
ATOM      4  C   UNL     1      29.022   0.347  52.978  1.00  0.00    -0.027 A 
ATOM      5  C   UNL     1      30.039  -0.746  53.272  1.00  0.00     0.046 C 
ATOM      6  C   UNL     1      28.962   1.515  53.737  1.00  0.00     0.045 A 
ATOM      7  C   UNL     1      28.002   2.494  53.450  1.00  0.00     0.040 A 
ENDROOT
BRANCH   1   8
ATOM      8  C   UNL     1      26.202   3.509  52.163  1.00  0.00     0.255 C 
ATOM      9  O   UNL     1      26.091   3.790  50.995  1.00  0.00    -0.269 OA
ATOM     10  N   UNL     1      25.446   3.955  53.178  1.00  0.00    -0.322 N 
ATOM     11  H   UNL     1      25.577   3.502  54.093  1.00  0.00     0.170 HD
BRANCH  10  12
ATOM     12  C   UNL     1      24.503   4.973  53.106  1.00  0.00     0.044 A 
ATOM     13  C   UNL     1      23.775   5.372  54.255  1.00  0.00     0.052 A 
ATOM     14  C   UNL     1      24.164   5.551  51.864  1.00  0.00     0.039 A 
ATOM     15  C   UNL     1      22.832   6.401  54.195  1.00  0.00     0.049 A 
ATOM     16  C   UNL     1      23.218   6.615  51.809  1.00  0.00     0.060 A 
ATOM     17  C   UNL     1      22.545   6.997  52.971  1.00  0.00     0.039 A 
BRANCH  15  18
ATOM     18  N   UNL     1      22.136   6.831  55.335  1.00  0.00    -0.306 N 
ATOM     19  C   UNL     1      22.574   6.895  56.656  1.00  0.00     0.116 A 
ATOM     20  C   UNL     1      20.848   7.191  55.399  1.00  0.00     0.204 A 
ATOM     21  C   UNL     1      21.536   7.289  57.426  1.00  0.00     0.056 A 
ATOM     22  N   UNL     1      20.475   7.500  56.617  1.00  0.00    -0.242 NA
ATOM     23  C   UNL     1      21.522   7.522  58.918  1.00  0.00     0.068 C 
ENDBRANCH  15  18
BRANCH  16  24
ATOM     24  C   UNL     1      22.922   7.250  50.489  1.00  0.00     0.416 C 
ATOM     25  F   UNL     1      22.458   8.513  50.555  1.00  0.00    -0.166 F 
ATOM     26  F   UNL     1      24.030   7.401  49.773  1.00  0.00    -0.166 F 
ATOM     27  F   UNL     1      21.955   6.596  49.811  1.00  0.00    -0.166 F 
ENDBRANCH  16  24
ENDBRANCH  10  12
ENDBRANCH   1   8
BRANCH   6  28
ATOM     28  N   UNL     1      29.732   1.592  54.904  1.00  0.00    -0.324 N 
ATOM     29  H   UNL     1      29.348   1.268  55.802  1.00  0.00     0.170 HD
BRANCH  28  30
ATOM     30  C   UNL     1      31.026   2.113  54.840  1.00  0.00     0.227 A 
ATOM     31  N   UNL     1      31.558   3.109  55.537  1.00  0.00    -0.221 NA
ATOM     32  N   UNL     1      31.683   1.463  53.845  1.00  0.00    -0.213 NA
ATOM     33  C   UNL     1      32.830   3.442  55.243  1.00  0.00     0.117 A 
ATOM     34  C   UNL     1      32.933   1.851  53.568  1.00  0.00     0.077 A 
ATOM     35  C   UNL     1      33.525   2.847  54.261  1.00  0.00     0.049 A 
BRANCH  34  36
ATOM     36  C   UNL     1      33.620   1.085  52.495  1.00  0.00     0.019 A 
ATOM     37  C   UNL     1      34.419   1.723  51.533  1.00  0.00     0.013 A 
ATOM     38  C   UNL     1      33.474  -0.313  52.408  1.00  0.00     0.121 A 
ATOM     39  C   UNL     1      35.016   0.959  50.538  1.00  0.00     0.021 A 
ATOM     40  N   UNL     1      34.041  -1.054  51.447  1.00  0.00    -0.264 NA
ATOM     41  C   UNL     1      34.820  -0.421  50.554  1.00  0.00     0.111 A 
ENDBRANCH  34  36
ENDBRANCH  28  30
ENDBRANCH   6  28
TORSDOF 7
ENDMDL
MODEL 11
REMARK VINA RESULT:   -11.026      3.878     11.705
REMARK INTER + INTRA:         -14.233
REMARK INTER:                 -13.114
REMARK INTRA:                  -1.120
REMARK CONF_INDEPENDENT:        2.088
REMARK UNBOUND:                -1.120
REMARK SMILES Cc1cn(-c2cc(NC(=O)c3ccc(C)c(Nc4nccc(-c5cccnc5)n4)c3)cc(C(F)(F)F)c2)cn1
REMARK SMILES IDX 11 1 12 2 13 3 14 4 15 5 16 6 30 7 9 8 10 9 8 10 7 12 6 13
REMARK SMILES IDX 31 14 5 15 32 16 37 17 4 18 3 19 38 20 2 21 39 22 1 23 33 24
REMARK SMILES IDX 34 25 35 26 36 27 17 28 18 30 19 31 29 32 20 33 22 34 21 35
REMARK SMILES IDX 23 36 24 37 28 38 25 39 27 40 26 41
REMARK H PARENT 8 11 17 29
ROOT
ATOM      1  C   UNL     1      25.804   3.465  51.857  1.00  0.00     0.042 A 
ATOM      2  C   UNL     1      24.947   3.281  50.762  1.00  0.00     0.014 A 
ATOM      3  C   UNL     1      23.609   3.677  50.810  1.00  0.00     0.006 A 
ATOM      4  C   UNL     1      23.054   4.191  51.971  1.00  0.00    -0.027 A 
ATOM      5  C   UNL     1      21.591   4.611  52.012  1.00  0.00     0.046 C 
ATOM      6  C   UNL     1      23.873   4.280  53.095  1.00  0.00     0.045 A 
ATOM      7  C   UNL     1      25.220   3.901  53.018  1.00  0.00     0.040 A 
ENDROOT
BRANCH   1   8
ATOM      8  C   UNL     1      27.190   2.964  51.938  1.00  0.00     0.255 C 
ATOM      9  O   UNL     1      27.765   2.860  50.882  1.00  0.00    -0.269 OA
ATOM     10  N   UNL     1      27.734   2.923  53.163  1.00  0.00    -0.322 N 
ATOM     11  H   UNL     1      27.125   3.179  53.954  1.00  0.00     0.170 HD
BRANCH  10  12
ATOM     12  C   UNL     1      29.043   2.567  53.463  1.00  0.00     0.044 A 
ATOM     13  C   UNL     1      29.731   1.604  52.685  1.00  0.00     0.052 A 
ATOM     14  C   UNL     1      29.675   3.067  54.623  1.00  0.00     0.039 A 
ATOM     15  C   UNL     1      31.051   1.247  52.973  1.00  0.00     0.049 A 
ATOM     16  C   UNL     1      31.027   2.719  54.902  1.00  0.00     0.060 A 
ATOM     17  C   UNL     1      31.679   1.788  54.090  1.00  0.00     0.039 A 
BRANCH  15  18
ATOM     18  N   UNL     1      31.755   0.326  52.183  1.00  0.00    -0.306 N 
ATOM     19  C   UNL     1      31.375  -0.269  50.982  1.00  0.00     0.116 A 
ATOM     20  C   UNL     1      32.926  -0.252  52.477  1.00  0.00     0.204 A 
ATOM     21  C   UNL     1      32.331  -1.155  50.627  1.00  0.00     0.056 A 
ATOM     22  N   UNL     1      33.309  -1.106  51.559  1.00  0.00    -0.242 NA
ATOM     23  C   UNL     1      32.378  -2.028  49.397  1.00  0.00     0.068 C 
ENDBRANCH  15  18
BRANCH  16  24
ATOM     24  C   UNL     1      31.691   3.310  56.103  1.00  0.00     0.416 C 
ATOM     25  F   UNL     1      31.086   4.403  56.608  1.00  0.00    -0.166 F 
ATOM     26  F   UNL     1      31.650   2.472  57.132  1.00  0.00    -0.166 F 
ATOM     27  F   UNL     1      32.942   3.740  55.838  1.00  0.00    -0.166 F 
ENDBRANCH  16  24
ENDBRANCH  10  12
ENDBRANCH   1   8
BRANCH   6  28
ATOM     28  N   UNL     1      23.383   4.944  54.227  1.00  0.00    -0.324 N 
ATOM     29  H   UNL     1      22.420   4.775  54.552  1.00  0.00     0.170 HD
BRANCH  28  30
ATOM     30  C   UNL     1      24.209   5.837  54.911  1.00  0.00     0.227 A 
ATOM     31  N   UNL     1      25.444   6.223  54.615  1.00  0.00    -0.221 NA
ATOM     32  N   UNL     1      23.556   6.222  56.038  1.00  0.00    -0.213 NA
ATOM     33  C   UNL     1      26.037   7.070  55.477  1.00  0.00     0.117 A 
ATOM     34  C   UNL     1      24.199   7.039  56.880  1.00  0.00     0.077 A 
ATOM     35  C   UNL     1      25.449   7.474  56.614  1.00  0.00     0.049 A 
BRANCH  34  36
ATOM     36  C   UNL     1      23.429   7.459  58.080  1.00  0.00     0.019 A 
ATOM     37  C   UNL     1      24.065   7.747  59.299  1.00  0.00     0.013 A 
ATOM     38  C   UNL     1      22.025   7.564  58.029  1.00  0.00     0.121 A 
ATOM     39  C   UNL     1      23.292   8.110  60.394  1.00  0.00     0.021 A 
ATOM     40  N   UNL     1      21.274   7.906  59.083  1.00  0.00    -0.264 NA
ATOM     41  C   UNL     1      21.910   8.201  60.229  1.00  0.00     0.111 A 
ENDBRANCH  34  36
ENDBRANCH  28  30
ENDBRANCH   6  28
TORSDOF 7
ENDMDL
MODEL 12
REMARK VINA RESULT:   -10.960      4.524      7.457
REMARK INTER + INTRA:         -13.857
REMARK INTER:                 -13.048
REMARK INTRA:                  -0.809
REMARK CONF_INDEPENDENT:        2.088
REMARK UNBOUND:                -0.809
REMARK SMILES Cc1cn(-c2cc(NC(=O)c3ccc(C)c(Nc4nccc(-c5cccnc5)n4)c3)cc(C(F)(F)F)c2)cn1
REMARK SMILES IDX 11 1 12 2 13 3 14 4 15 5 16 6 30 7 9 8 10 9 8 10 7 12 6 13
REMARK SMILES IDX 31 14 5 15 32 16 37 17 4 18 3 19 38 20 2 21 39 22 1 23 33 24
REMARK SMILES IDX 34 25 35 26 36 27 17 28 18 30 19 31 29 32 20 33 22 34 21 35
REMARK SMILES IDX 23 36 24 37 28 38 25 39 27 40 26 41
REMARK H PARENT 8 11 17 29
ROOT
ATOM      1  C   UNL     1      23.017   5.857  52.740  1.00  0.00     0.042 A 
ATOM      2  C   UNL     1      22.691   5.550  51.410  1.00  0.00     0.014 A 
ATOM      3  C   UNL     1      23.277   4.470  50.749  1.00  0.00     0.006 A 
ATOM      4  C   UNL     1      24.264   3.708  51.353  1.00  0.00    -0.027 A 
ATOM      5  C   UNL     1      24.900   2.537  50.617  1.00  0.00     0.046 C 
ATOM      6  C   UNL     1      24.666   4.071  52.637  1.00  0.00     0.045 A 
ATOM      7  C   UNL     1      24.049   5.144  53.292  1.00  0.00     0.040 A 
ENDROOT
BRANCH   1   8
ATOM      8  C   UNL     1      22.544   7.049  53.470  1.00  0.00     0.255 C 
ATOM      9  O   UNL     1      23.369   7.914  53.641  1.00  0.00    -0.269 OA
ATOM     10  N   UNL     1      21.217   7.153  53.638  1.00  0.00    -0.322 N 
ATOM     11  H   UNL     1      20.641   6.367  53.306  1.00  0.00     0.170 HD
BRANCH  10  12
ATOM     12  C   UNL     1      20.549   8.224  54.218  1.00  0.00     0.044 A 
ATOM     13  C   UNL     1      19.538   8.920  53.511  1.00  0.00     0.052 A 
ATOM     14  C   UNL     1      20.946   8.719  55.480  1.00  0.00     0.039 A 
ATOM     15  C   UNL     1      18.854   9.993  54.090  1.00  0.00     0.049 A 
ATOM     16  C   UNL     1      20.233   9.797  56.078  1.00  0.00     0.060 A 
ATOM     17  C   UNL     1      19.222  10.436  55.357  1.00  0.00     0.039 A 
BRANCH  15  18
ATOM     18  N   UNL     1      17.823  10.662  53.414  1.00  0.00    -0.306 N 
ATOM     19  C   UNL     1      16.658  11.225  53.932  1.00  0.00     0.116 A 
ATOM     20  C   UNL     1      17.702  10.819  52.091  1.00  0.00     0.204 A 
ATOM     21  C   UNL     1      15.917  11.686  52.900  1.00  0.00     0.056 A 
ATOM     22  N   UNL     1      16.603  11.451  51.759  1.00  0.00    -0.242 NA
ATOM     23  C   UNL     1      14.584  12.393  52.956  1.00  0.00     0.068 C 
ENDBRANCH  15  18
BRANCH  16  24
ATOM     24  C   UNL     1      20.635  10.261  57.440  1.00  0.00     0.416 C 
ATOM     25  F   UNL     1      20.936   9.278  58.311  1.00  0.00    -0.166 F 
ATOM     26  F   UNL     1      21.773  10.945  57.394  1.00  0.00    -0.166 F 
ATOM     27  F   UNL     1      19.650  10.941  58.062  1.00  0.00    -0.166 F 
ENDBRANCH  16  24
ENDBRANCH  10  12
ENDBRANCH   1   8
BRANCH   6  28
ATOM     28  N   UNL     1      25.542   3.223  53.327  1.00  0.00    -0.324 N 
ATOM     29  H   UNL     1      25.292   2.868  54.261  1.00  0.00     0.170 HD
BRANCH  28  30
ATOM     30  C   UNL     1      26.755   2.861  52.738  1.00  0.00     0.227 A 
ATOM     31  N   UNL     1      27.387   3.429  51.718  1.00  0.00    -0.221 NA
ATOM     32  N   UNL     1      27.187   1.727  53.347  1.00  0.00    -0.213 NA
ATOM     33  C   UNL     1      28.533   2.847  51.317  1.00  0.00     0.117 A 
ATOM     34  C   UNL     1      28.314   1.167  52.892  1.00  0.00     0.077 A 
ATOM     35  C   UNL     1      29.003   1.717  51.869  1.00  0.00     0.049 A 
BRANCH  34  36
ATOM     36  C   UNL     1      28.762  -0.052  53.614  1.00  0.00     0.019 A 
ATOM     37  C   UNL     1      28.072  -0.538  54.736  1.00  0.00     0.013 A 
ATOM     38  C   UNL     1      29.913  -0.748  53.195  1.00  0.00     0.121 A 
ATOM     39  C   UNL     1      28.552  -1.668  55.386  1.00  0.00     0.021 A 
ATOM     40  N   UNL     1      30.385  -1.833  53.823  1.00  0.00    -0.264 NA
ATOM     41  C   UNL     1      29.691  -2.291  54.878  1.00  0.00     0.111 A 
ENDBRANCH  34  36
ENDBRANCH  28  30
ENDBRANCH   6  28
TORSDOF 7
ENDMDL
MODEL 13
REMARK VINA RESULT:   -10.911      3.548     12.287
REMARK INTER + INTRA:         -14.219
REMARK INTER:                 -12.999
REMARK INTRA:                  -1.219
REMARK CONF_INDEPENDENT:        2.088
REMARK UNBOUND:                -1.219
REMARK SMILES Cc1cn(-c2cc(NC(=O)c3ccc(C)c(Nc4nccc(-c5cccnc5)n4)c3)cc(C(F)(F)F)c2)cn1
REMARK SMILES IDX 11 1 12 2 13 3 14 4 15 5 16 6 30 7 9 8 10 9 8 10 7 12 6 13
REMARK SMILES IDX 31 14 5 15 32 16 37 17 4 18 3 19 38 20 2 21 39 22 1 23 33 24
REMARK SMILES IDX 34 25 35 26 36 27 17 28 18 30 19 31 29 32 20 33 22 34 21 35
REMARK SMILES IDX 23 36 24 37 28 38 25 39 27 40 26 41
REMARK H PARENT 8 11 17 29
ROOT
ATOM      1  C   UNL     1      25.716   3.702  51.884  1.00  0.00     0.042 A 
ATOM      2  C   UNL     1      25.274   4.344  50.717  1.00  0.00     0.014 A 
ATOM      3  C   UNL     1      24.103   5.103  50.704  1.00  0.00     0.006 A 
ATOM      4  C   UNL     1      23.287   5.184  51.820  1.00  0.00    -0.027 A 
ATOM      5  C   UNL     1      22.008   6.010  51.789  1.00  0.00     0.046 C 
ATOM      6  C   UNL     1      23.667   4.465  52.952  1.00  0.00     0.045 A 
ATOM      7  C   UNL     1      24.859   3.729  52.953  1.00  0.00     0.040 A 
ENDROOT
BRANCH   1   8
ATOM      8  C   UNL     1      26.867   2.781  51.956  1.00  0.00     0.255 C 
ATOM      9  O   UNL     1      27.642   2.847  51.032  1.00  0.00    -0.269 OA
ATOM     10  N   UNL     1      27.061   2.167  53.132  1.00  0.00    -0.322 N 
ATOM     11  H   UNL     1      26.359   2.333  53.868  1.00  0.00     0.170 HD
BRANCH  10  12
ATOM     12  C   UNL     1      28.122   1.328  53.450  1.00  0.00     0.044 A 
ATOM     13  C   UNL     1      29.429   1.597  52.975  1.00  0.00     0.052 A 
ATOM     14  C   UNL     1      27.899   0.124  54.152  1.00  0.00     0.039 A 
ATOM     15  C   UNL     1      30.504   0.764  53.297  1.00  0.00     0.049 A 
ATOM     16  C   UNL     1      28.999  -0.712  54.499  1.00  0.00     0.060 A 
ATOM     17  C   UNL     1      30.277  -0.393  54.035  1.00  0.00     0.039 A 
BRANCH  15  18
ATOM     18  N   UNL     1      31.810   1.045  52.867  1.00  0.00    -0.306 N 
ATOM     19  C   UNL     1      32.472   0.593  51.726  1.00  0.00     0.116 A 
ATOM     20  C   UNL     1      32.738   1.748  53.527  1.00  0.00     0.204 A 
ATOM     21  C   UNL     1      33.743   1.051  51.767  1.00  0.00     0.056 A 
ATOM     22  N   UNL     1      33.879   1.798  52.885  1.00  0.00    -0.242 NA
ATOM     23  C   UNL     1      34.838   0.843  50.749  1.00  0.00     0.068 C 
ENDBRANCH  15  18
BRANCH  16  24
ATOM     24  C   UNL     1      28.742  -1.950  55.294  1.00  0.00     0.416 C 
ATOM     25  F   UNL     1      29.839  -2.675  55.590  1.00  0.00    -0.166 F 
ATOM     26  F   UNL     1      28.275  -1.653  56.502  1.00  0.00    -0.166 F 
ATOM     27  F   UNL     1      27.954  -2.827  54.638  1.00  0.00    -0.166 F 
ENDBRANCH  16  24
ENDBRANCH  10  12
ENDBRANCH   1   8
BRANCH   6  28
ATOM     28  N   UNL     1      22.949   4.660  54.139  1.00  0.00    -0.324 N 
ATOM     29  H   UNL     1      22.322   3.925  54.494  1.00  0.00     0.170 HD
BRANCH  28  30
ATOM     30  C   UNL     1      23.090   5.861  54.837  1.00  0.00     0.227 A 
ATOM     31  N   UNL     1      24.101   6.271  55.593  1.00  0.00    -0.221 NA
ATOM     32  N   UNL     1      21.939   6.565  54.683  1.00  0.00    -0.213 NA
ATOM     33  C   UNL     1      23.961   7.467  56.195  1.00  0.00     0.117 A 
ATOM     34  C   UNL     1      21.834   7.734  55.326  1.00  0.00     0.077 A 
ATOM     35  C   UNL     1      22.842   8.202  56.093  1.00  0.00     0.049 A 
BRANCH  34  36
ATOM     36  C   UNL     1      20.570   8.481  55.097  1.00  0.00     0.019 A 
ATOM     37  C   UNL     1      20.287   9.087  53.862  1.00  0.00     0.013 A 
ATOM     38  C   UNL     1      19.621   8.615  56.129  1.00  0.00     0.121 A 
ATOM     39  C   UNL     1      19.100   9.794  53.714  1.00  0.00     0.021 A 
ATOM     40  N   UNL     1      18.479   9.302  55.995  1.00  0.00    -0.264 NA
ATOM     41  C   UNL     1      18.222   9.849  54.795  1.00  0.00     0.111 A 
ENDBRANCH  34  36
ENDBRANCH  28  30
ENDBRANCH   6  28
TORSDOF 7
ENDMDL
MODEL 14
REMARK VINA RESULT:   -10.892      8.401     15.272
REMARK INTER + INTRA:         -14.282
REMARK INTER:                 -12.980
REMARK INTRA:                  -1.302
REMARK CONF_INDEPENDENT:        2.088
REMARK UNBOUND:                -1.302
REMARK SMILES Cc1cn(-c2cc(NC(=O)c3ccc(C)c(Nc4nccc(-c5cccnc5)n4)c3)cc(C(F)(F)F)c2)cn1
REMARK SMILES IDX 11 1 12 2 13 3 14 4 15 5 16 6 30 7 9 8 10 9 8 10 7 12 6 13
REMARK SMILES IDX 31 14 5 15 32 16 37 17 4 18 3 19 38 20 2 21 39 22 1 23 33 24
REMARK SMILES IDX 34 25 35 26 36 27 17 28 18 30 19 31 29 32 20 33 22 34 21 35
REMARK SMILES IDX 23 36 24 37 28 38 25 39 27 40 26 41
REMARK H PARENT 8 11 17 29
ROOT
ATOM      1  C   UNL     1      36.020  -1.616  49.246  1.00  0.00     0.042 A 
ATOM      2  C   UNL     1      35.253  -2.786  49.141  1.00  0.00     0.014 A 
ATOM      3  C   UNL     1      33.881  -2.781  49.399  1.00  0.00     0.006 A 
ATOM      4  C   UNL     1      33.238  -1.639  49.849  1.00  0.00    -0.027 A 
ATOM      5  C   UNL     1      31.743  -1.650  50.134  1.00  0.00     0.046 C 
ATOM      6  C   UNL     1      34.015  -0.499  50.054  1.00  0.00     0.045 A 
ATOM      7  C   UNL     1      35.385  -0.518  49.766  1.00  0.00     0.040 A 
ENDROOT
BRANCH   1   8
ATOM      8  C   UNL     1      37.489  -1.556  49.116  1.00  0.00     0.255 C 
ATOM      9  O   UNL     1      38.072  -1.065  50.052  1.00  0.00    -0.269 OA
ATOM     10  N   UNL     1      38.024  -2.267  48.113  1.00  0.00    -0.322 N 
ATOM     11  H   UNL     1      37.369  -2.742  47.475  1.00  0.00     0.170 HD
BRANCH  10  12
ATOM     12  C   UNL     1      39.380  -2.422  47.854  1.00  0.00     0.044 A 
ATOM     13  C   UNL     1      39.933  -2.027  46.611  1.00  0.00     0.052 A 
ATOM     14  C   UNL     1      40.215  -3.088  48.778  1.00  0.00     0.039 A 
ATOM     15  C   UNL     1      41.298  -2.170  46.346  1.00  0.00     0.049 A 
ATOM     16  C   UNL     1      41.609  -3.212  48.516  1.00  0.00     0.060 A 
ATOM     17  C   UNL     1      42.119  -2.781  47.289  1.00  0.00     0.039 A 
BRANCH  15  18
ATOM     18  N   UNL     1      41.863  -1.744  45.135  1.00  0.00    -0.306 N 
ATOM     19  C   UNL     1      42.150  -0.447  44.711  1.00  0.00     0.116 A 
ATOM     20  C   UNL     1      42.164  -2.508  44.078  1.00  0.00     0.204 A 
ATOM     21  C   UNL     1      42.606  -0.510  43.440  1.00  0.00     0.056 A 
ATOM     22  N   UNL     1      42.638  -1.811  43.074  1.00  0.00    -0.242 NA
ATOM     23  C   UNL     1      43.063   0.628  42.561  1.00  0.00     0.068 C 
ENDBRANCH  15  18
BRANCH  16  24
ATOM     24  C   UNL     1      42.481  -3.867  49.538  1.00  0.00     0.416 C 
ATOM     25  F   UNL     1      42.358  -3.378  50.788  1.00  0.00    -0.166 F 
ATOM     26  F   UNL     1      42.145  -5.140  49.706  1.00  0.00    -0.166 F 
ATOM     27  F   UNL     1      43.793  -3.711  49.268  1.00  0.00    -0.166 F 
ENDBRANCH  16  24
ENDBRANCH  10  12
ENDBRANCH   1   8
BRANCH   6  28
ATOM     28  N   UNL     1      33.365   0.706  50.351  1.00  0.00    -0.324 N 
ATOM     29  H   UNL     1      33.021   1.311  49.591  1.00  0.00     0.170 HD
BRANCH  28  30
ATOM     30  C   UNL     1      33.186   1.080  51.684  1.00  0.00     0.227 A 
ATOM     31  N   UNL     1      33.886   1.945  52.406  1.00  0.00    -0.221 NA
ATOM     32  N   UNL     1      32.176   0.327  52.191  1.00  0.00    -0.213 NA
ATOM     33  C   UNL     1      33.525   2.089  53.696  1.00  0.00     0.117 A 
ATOM     34  C   UNL     1      31.875   0.482  53.486  1.00  0.00     0.077 A 
ATOM     35  C   UNL     1      32.546   1.363  54.258  1.00  0.00     0.049 A 
BRANCH  34  36
ATOM     36  C   UNL     1      30.740  -0.338  53.983  1.00  0.00     0.019 A 
ATOM     37  C   UNL     1      29.647   0.243  54.645  1.00  0.00     0.013 A 
ATOM     38  C   UNL     1      30.740  -1.737  53.815  1.00  0.00     0.121 A 
ATOM     39  C   UNL     1      28.626  -0.576  55.111  1.00  0.00     0.021 A 
ATOM     40  N   UNL     1      29.763  -2.532  54.269  1.00  0.00    -0.264 NA
ATOM     41  C   UNL     1      28.718  -1.947  54.876  1.00  0.00     0.111 A 
ENDBRANCH  34  36
ENDBRANCH  28  30
ENDBRANCH   6  28
TORSDOF 7
ENDMDL
MODEL 15
REMARK VINA RESULT:   -10.871      3.665     12.064
REMARK INTER + INTRA:         -14.292
REMARK INTER:                 -12.959
REMARK INTRA:                  -1.333
REMARK CONF_INDEPENDENT:        2.088
REMARK UNBOUND:                -1.333
REMARK SMILES Cc1cn(-c2cc(NC(=O)c3ccc(C)c(Nc4nccc(-c5cccnc5)n4)c3)cc(C(F)(F)F)c2)cn1
REMARK SMILES IDX 11 1 12 2 13 3 14 4 15 5 16 6 30 7 9 8 10 9 8 10 7 12 6 13
REMARK SMILES IDX 31 14 5 15 32 16 37 17 4 18 3 19 38 20 2 21 39 22 1 23 33 24
REMARK SMILES IDX 34 25 35 26 36 27 17 28 18 30 19 31 29 32 20 33 22 34 21 35
REMARK SMILES IDX 23 36 24 37 28 38 25 39 27 40 26 41
REMARK H PARENT 8 11 17 29
ROOT
ATOM      1  C   UNL     1      25.714   3.687  51.931  1.00  0.00     0.042 A 
ATOM      2  C   UNL     1      24.971   3.846  50.752  1.00  0.00     0.014 A 
ATOM      3  C   UNL     1      23.638   4.259  50.783  1.00  0.00     0.006 A 
ATOM      4  C   UNL     1      22.973   4.449  51.984  1.00  0.00    -0.027 A 
ATOM      5  C   UNL     1      21.517   4.893  52.002  1.00  0.00     0.046 C 
ATOM      6  C   UNL     1      23.676   4.192  53.160  1.00  0.00     0.045 A 
ATOM      7  C   UNL     1      25.020   3.802  53.107  1.00  0.00     0.040 A 
ENDROOT
BRANCH   1   8
ATOM      8  C   UNL     1      27.082   3.134  51.998  1.00  0.00     0.255 C 
ATOM      9  O   UNL     1      27.635   2.991  50.936  1.00  0.00    -0.269 OA
ATOM     10  N   UNL     1      27.644   3.092  53.216  1.00  0.00    -0.322 N 
ATOM     11  H   UNL     1      27.058   3.383  54.011  1.00  0.00     0.170 HD
BRANCH  10  12
ATOM     12  C   UNL     1      28.943   2.691  53.501  1.00  0.00     0.044 A 
ATOM     13  C   UNL     1      29.589   1.706  52.714  1.00  0.00     0.052 A 
ATOM     14  C   UNL     1      29.604   3.167  54.654  1.00  0.00     0.039 A 
ATOM     15  C   UNL     1      30.899   1.303  52.988  1.00  0.00     0.049 A 
ATOM     16  C   UNL     1      30.947   2.772  54.918  1.00  0.00     0.060 A 
ATOM     17  C   UNL     1      31.558   1.821  54.098  1.00  0.00     0.039 A 
BRANCH  15  18
ATOM     18  N   UNL     1      31.563   0.360  52.189  1.00  0.00    -0.306 N 
ATOM     19  C   UNL     1      31.142  -0.233  51.000  1.00  0.00     0.116 A 
ATOM     20  C   UNL     1      32.726  -0.244  52.462  1.00  0.00     0.204 A 
ATOM     21  C   UNL     1      32.068  -1.145  50.632  1.00  0.00     0.056 A 
ATOM     22  N   UNL     1      33.067  -1.113  51.542  1.00  0.00    -0.242 NA
ATOM     23  C   UNL     1      32.067  -2.027  49.407  1.00  0.00     0.068 C 
ENDBRANCH  15  18
BRANCH  16  24
ATOM     24  C   UNL     1      31.643   3.339  56.113  1.00  0.00     0.416 C 
ATOM     25  F   UNL     1      31.040   4.407  56.671  1.00  0.00    -0.166 F 
ATOM     26  F   UNL     1      31.650   2.471  57.118  1.00  0.00    -0.166 F 
ATOM     27  F   UNL     1      32.878   3.795  55.818  1.00  0.00    -0.166 F 
ENDBRANCH  16  24
ENDBRANCH  10  12
ENDBRANCH   1   8
BRANCH   6  28
ATOM     28  N   UNL     1      23.079   4.531  54.381  1.00  0.00    -0.324 N 
ATOM     29  H   UNL     1      22.500   3.844  54.884  1.00  0.00     0.170 HD
BRANCH  28  30
ATOM     30  C   UNL     1      23.274   5.808  54.909  1.00  0.00     0.227 A 
ATOM     31  N   UNL     1      24.192   6.220  55.775  1.00  0.00    -0.221 NA
ATOM     32  N   UNL     1      22.280   6.605  54.440  1.00  0.00    -0.213 NA
ATOM     33  C   UNL     1      24.130   7.509  56.158  1.00  0.00     0.117 A 
ATOM     34  C   UNL     1      22.240   7.871  54.873  1.00  0.00     0.077 A 
ATOM     35  C   UNL     1      23.162   8.341  55.740  1.00  0.00     0.049 A 
BRANCH  34  36
ATOM     36  C   UNL     1      21.155   8.711  54.303  1.00  0.00     0.019 A 
ATOM     37  C   UNL     1      19.812   8.302  54.340  1.00  0.00     0.013 A 
ATOM     38  C   UNL     1      21.452   9.945  53.691  1.00  0.00     0.121 A 
ATOM     39  C   UNL     1      18.843   9.117  53.769  1.00  0.00     0.021 A 
ATOM     40  N   UNL     1      20.523  10.730  53.132  1.00  0.00    -0.264 NA
ATOM     41  C   UNL     1      19.244  10.327  53.204  1.00  0.00     0.111 A 
ENDBRANCH  34  36
ENDBRANCH  28  30
ENDBRANCH   6  28
TORSDOF 7
ENDMDL
MODEL 16
REMARK VINA RESULT:   -10.854      3.372      5.387
REMARK INTER + INTRA:         -14.016
REMARK INTER:                 -12.942
REMARK INTRA:                  -1.073
REMARK CONF_INDEPENDENT:        2.088
REMARK UNBOUND:                -1.073
REMARK SMILES Cc1cn(-c2cc(NC(=O)c3ccc(C)c(Nc4nccc(-c5cccnc5)n4)c3)cc(C(F)(F)F)c2)cn1
REMARK SMILES IDX 11 1 12 2 13 3 14 4 15 5 16 6 30 7 9 8 10 9 8 10 7 12 6 13
REMARK SMILES IDX 31 14 5 15 32 16 37 17 4 18 3 19 38 20 2 21 39 22 1 23 33 24
REMARK SMILES IDX 34 25 35 26 36 27 17 28 18 30 19 31 29 32 20 33 22 34 21 35
REMARK SMILES IDX 23 36 24 37 28 38 25 39 27 40 26 41
REMARK H PARENT 8 11 17 29
ROOT
ATOM      1  C   UNL     1      27.559   1.971  52.494  1.00  0.00     0.042 A 
ATOM      2  C   UNL     1      27.834   0.827  51.729  1.00  0.00     0.014 A 
ATOM      3  C   UNL     1      28.817  -0.086  52.115  1.00  0.00     0.006 A 
ATOM      4  C   UNL     1      29.616   0.144  53.223  1.00  0.00    -0.027 A 
ATOM      5  C   UNL     1      30.689  -0.857  53.627  1.00  0.00     0.046 C 
ATOM      6  C   UNL     1      29.418   1.330  53.928  1.00  0.00     0.045 A 
ATOM      7  C   UNL     1      28.409   2.222  53.539  1.00  0.00     0.040 A 
ENDROOT
BRANCH   1   8
ATOM      8  C   UNL     1      26.631   3.048  52.096  1.00  0.00     0.255 C 
ATOM      9  O   UNL     1      26.457   3.170  50.908  1.00  0.00    -0.269 OA
ATOM     10  N   UNL     1      25.903   3.595  53.081  1.00  0.00    -0.322 N 
ATOM     11  H   UNL     1      26.093   3.270  54.039  1.00  0.00     0.170 HD
BRANCH  10  12
ATOM     12  C   UNL     1      24.914   4.559  52.926  1.00  0.00     0.044 A 
ATOM     13  C   UNL     1      24.170   5.022  54.039  1.00  0.00     0.052 A 
ATOM     14  C   UNL     1      24.547   5.010  51.639  1.00  0.00     0.039 A 
ATOM     15  C   UNL     1      23.181   5.999  53.895  1.00  0.00     0.049 A 
ATOM     16  C   UNL     1      23.554   6.021  51.497  1.00  0.00     0.060 A 
ATOM     17  C   UNL     1      22.866   6.472  52.625  1.00  0.00     0.039 A 
BRANCH  15  18
ATOM     18  N   UNL     1      22.467   6.495  54.996  1.00  0.00    -0.306 N 
ATOM     19  C   UNL     1      22.873   6.605  56.325  1.00  0.00     0.116 A 
ATOM     20  C   UNL     1      21.188   6.889  55.011  1.00  0.00     0.204 A 
ATOM     21  C   UNL     1      21.827   7.058  57.050  1.00  0.00     0.056 A 
ATOM     22  N   UNL     1      20.792   7.260  56.204  1.00  0.00    -0.242 NA
ATOM     23  C   UNL     1      21.781   7.355  58.529  1.00  0.00     0.068 C 
ENDBRANCH  15  18
BRANCH  16  24
ATOM     24  C   UNL     1      23.228   6.524  50.128  1.00  0.00     0.416 C 
ATOM     25  F   UNL     1      23.311   7.860  49.977  1.00  0.00    -0.166 F 
ATOM     26  F   UNL     1      24.112   6.090  49.237  1.00  0.00    -0.166 F 
ATOM     27  F   UNL     1      21.957   6.246  49.770  1.00  0.00    -0.166 F 
ENDBRANCH  16  24
ENDBRANCH  10  12
ENDBRANCH   1   8
BRANCH   6  28
ATOM     28  N   UNL     1      30.098   1.508  55.139  1.00  0.00    -0.324 N 
ATOM     29  H   UNL     1      29.811   0.984  55.978  1.00  0.00     0.170 HD
BRANCH  28  30
ATOM     30  C   UNL     1      31.169   2.402  55.200  1.00  0.00     0.227 A 
ATOM     31  N   UNL     1      32.030   2.736  54.247  1.00  0.00    -0.221 NA
ATOM     32  N   UNL     1      31.257   2.853  56.478  1.00  0.00    -0.213 NA
ATOM     33  C   UNL     1      33.006   3.599  54.589  1.00  0.00     0.117 A 
ATOM     34  C   UNL     1      32.262   3.683  56.777  1.00  0.00     0.077 A 
ATOM     35  C   UNL     1      33.154   4.067  55.838  1.00  0.00     0.049 A 
BRANCH  34  36
ATOM     36  C   UNL     1      32.294   4.176  58.179  1.00  0.00     0.019 A 
ATOM     37  C   UNL     1      31.868   5.471  58.513  1.00  0.00     0.013 A 
ATOM     38  C   UNL     1      32.770   3.351  59.217  1.00  0.00     0.121 A 
ATOM     39  C   UNL     1      31.944   5.886  59.837  1.00  0.00     0.021 A 
ATOM     40  N   UNL     1      32.853   3.748  60.493  1.00  0.00    -0.264 NA
ATOM     41  C   UNL     1      32.415   4.983  60.788  1.00  0.00     0.111 A 
ENDBRANCH  34  36
ENDBRANCH  28  30
ENDBRANCH   6  28
TORSDOF 7
ENDMDL
MODEL 17
REMARK VINA RESULT:   -10.799      4.606     13.430
REMARK INTER + INTRA:         -14.219
REMARK INTER:                 -12.887
REMARK INTRA:                  -1.332
REMARK CONF_INDEPENDENT:        2.088
REMARK UNBOUND:                -1.332
REMARK SMILES Cc1cn(-c2cc(NC(=O)c3ccc(C)c(Nc4nccc(-c5cccnc5)n4)c3)cc(C(F)(F)F)c2)cn1
REMARK SMILES IDX 11 1 12 2 13 3 14 4 15 5 16 6 30 7 9 8 10 9 8 10 7 12 6 13
REMARK SMILES IDX 31 14 5 15 32 16 37 17 4 18 3 19 38 20 2 21 39 22 1 23 33 24
REMARK SMILES IDX 34 25 35 26 36 27 17 28 18 30 19 31 29 32 20 33 22 34 21 35
REMARK SMILES IDX 23 36 24 37 28 38 25 39 27 40 26 41
REMARK H PARENT 8 11 17 29
ROOT
ATOM      1  C   UNL     1      21.150   7.095  54.234  1.00  0.00     0.042 A 
ATOM      2  C   UNL     1      20.960   7.235  55.617  1.00  0.00     0.014 A 
ATOM      3  C   UNL     1      20.252   8.314  56.149  1.00  0.00     0.006 A 
ATOM      4  C   UNL     1      19.781   9.333  55.338  1.00  0.00    -0.027 A 
ATOM      5  C   UNL     1      19.018  10.508  55.932  1.00  0.00     0.046 C 
ATOM      6  C   UNL     1      20.056   9.253  53.973  1.00  0.00     0.045 A 
ATOM      7  C   UNL     1      20.746   8.149  53.457  1.00  0.00     0.040 A 
ENDROOT
BRANCH   1   8
ATOM      8  C   UNL     1      21.988   6.060  53.598  1.00  0.00     0.255 C 
ATOM      9  O   UNL     1      21.877   4.949  54.056  1.00  0.00    -0.269 OA
ATOM     10  N   UNL     1      22.577   6.404  52.442  1.00  0.00    -0.322 N 
ATOM     11  H   UNL     1      22.453   7.376  52.126  1.00  0.00     0.170 HD
BRANCH  10  12
ATOM     12  C   UNL     1      23.337   5.569  51.634  1.00  0.00     0.044 A 
ATOM     13  C   UNL     1      24.425   4.834  52.167  1.00  0.00     0.052 A 
ATOM     14  C   UNL     1      23.119   5.525  50.240  1.00  0.00     0.039 A 
ATOM     15  C   UNL     1      25.190   3.984  51.364  1.00  0.00     0.049 A 
ATOM     16  C   UNL     1      23.885   4.641  49.427  1.00  0.00     0.060 A 
ATOM     17  C   UNL     1      24.930   3.912  50.000  1.00  0.00     0.039 A 
BRANCH  15  18
ATOM     18  N   UNL     1      26.243   3.220  51.891  1.00  0.00    -0.306 N 
ATOM     19  C   UNL     1      26.425   2.761  53.194  1.00  0.00     0.116 A 
ATOM     20  C   UNL     1      27.359   2.847  51.254  1.00  0.00     0.204 A 
ATOM     21  C   UNL     1      27.623   2.141  53.260  1.00  0.00     0.056 A 
ATOM     22  N   UNL     1      28.178   2.177  52.028  1.00  0.00    -0.242 NA
ATOM     23  C   UNL     1      28.255   1.465  54.453  1.00  0.00     0.068 C 
ENDBRANCH  15  18
BRANCH  16  24
ATOM     24  C   UNL     1      23.593   4.571  47.963  1.00  0.00     0.416 C 
ATOM     25  F   UNL     1      24.523   5.138  47.169  1.00  0.00    -0.166 F 
ATOM     26  F   UNL     1      23.596   3.314  47.536  1.00  0.00    -0.166 F 
ATOM     27  F   UNL     1      22.459   5.225  47.635  1.00  0.00    -0.166 F 
ENDBRANCH  16  24
ENDBRANCH  10  12
ENDBRANCH   1   8
BRANCH   6  28
ATOM     28  N   UNL     1      19.454  10.183  53.116  1.00  0.00    -0.324 N 
ATOM     29  H   UNL     1      20.029  10.749  52.477  1.00  0.00     0.170 HD
BRANCH  28  30
ATOM     30  C   UNL     1      18.066  10.335  53.135  1.00  0.00     0.227 A 
ATOM     31  N   UNL     1      17.349  11.447  53.034  1.00  0.00    -0.221 NA
ATOM     32  N   UNL     1      17.520   9.112  53.361  1.00  0.00    -0.213 NA
ATOM     33  C   UNL     1      16.012  11.316  53.128  1.00  0.00     0.117 A 
ATOM     34  C   UNL     1      16.190   9.037  53.479  1.00  0.00     0.077 A 
ATOM     35  C   UNL     1      15.415  10.138  53.366  1.00  0.00     0.049 A 
BRANCH  34  36
ATOM     36  C   UNL     1      15.640   7.672  53.691  1.00  0.00     0.019 A 
ATOM     37  C   UNL     1      14.864   7.359  54.819  1.00  0.00     0.013 A 
ATOM     38  C   UNL     1      15.898   6.645  52.763  1.00  0.00     0.121 A 
ATOM     39  C   UNL     1      14.398   6.060  54.977  1.00  0.00     0.021 A 
ATOM     40  N   UNL     1      15.458   5.389  52.914  1.00  0.00    -0.264 NA
ATOM     41  C   UNL     1      14.698   5.123  53.989  1.00  0.00     0.111 A 
ENDBRANCH  34  36
ENDBRANCH  28  30
ENDBRANCH   6  28
TORSDOF 7
ENDMDL
MODEL 18
REMARK VINA RESULT:   -10.756      4.669      8.294
REMARK INTER + INTRA:         -13.929
REMARK INTER:                 -12.844
REMARK INTRA:                  -1.085
REMARK CONF_INDEPENDENT:        2.088
REMARK UNBOUND:                -1.085
REMARK SMILES Cc1cn(-c2cc(NC(=O)c3ccc(C)c(Nc4nccc(-c5cccnc5)n4)c3)cc(C(F)(F)F)c2)cn1
REMARK SMILES IDX 11 1 12 2 13 3 14 4 15 5 16 6 30 7 9 8 10 9 8 10 7 12 6 13
REMARK SMILES IDX 31 14 5 15 32 16 37 17 4 18 3 19 38 20 2 21 39 22 1 23 33 24
REMARK SMILES IDX 34 25 35 26 36 27 17 28 18 30 19 31 29 32 20 33 22 34 21 35
REMARK SMILES IDX 23 36 24 37 28 38 25 39 27 40 26 41
REMARK H PARENT 8 11 17 29
ROOT
ATOM      1  C   UNL     1      34.292  -0.824  50.737  1.00  0.00     0.042 A 
ATOM      2  C   UNL     1      34.342  -2.055  50.065  1.00  0.00     0.014 A 
ATOM      3  C   UNL     1      35.326  -2.324  49.113  1.00  0.00     0.006 A 
ATOM      4  C   UNL     1      36.242  -1.357  48.733  1.00  0.00    -0.027 A 
ATOM      5  C   UNL     1      37.306  -1.663  47.688  1.00  0.00     0.046 C 
ATOM      6  C   UNL     1      36.134  -0.098  49.322  1.00  0.00     0.045 A 
ATOM      7  C   UNL     1      35.155   0.145  50.293  1.00  0.00     0.040 A 
ENDROOT
BRANCH   1   8
ATOM      8  C   UNL     1      33.217  -0.409  51.659  1.00  0.00     0.255 C 
ATOM      9  O   UNL     1      33.450   0.576  52.317  1.00  0.00    -0.269 OA
ATOM     10  N   UNL     1      32.028  -1.005  51.488  1.00  0.00    -0.322 N 
ATOM     11  H   UNL     1      31.975  -1.747  50.776  1.00  0.00     0.170 HD
BRANCH  10  12
ATOM     12  C   UNL     1      30.861  -0.713  52.183  1.00  0.00     0.044 A 
ATOM     13  C   UNL     1      30.043   0.380  51.803  1.00  0.00     0.052 A 
ATOM     14  C   UNL     1      30.527  -1.423  53.357  1.00  0.00     0.039 A 
ATOM     15  C   UNL     1      28.862   0.676  52.490  1.00  0.00     0.049 A 
ATOM     16  C   UNL     1      29.313  -1.134  54.042  1.00  0.00     0.060 A 
ATOM     17  C   UNL     1      28.520  -0.067  53.615  1.00  0.00     0.039 A 
BRANCH  15  18
ATOM     18  N   UNL     1      28.024   1.730  52.096  1.00  0.00    -0.306 N 
ATOM     19  C   UNL     1      27.010   2.358  52.817  1.00  0.00     0.116 A 
ATOM     20  C   UNL     1      27.965   2.298  50.886  1.00  0.00     0.204 A 
ATOM     21  C   UNL     1      26.413   3.260  52.007  1.00  0.00     0.056 A 
ATOM     22  N   UNL     1      27.047   3.229  50.814  1.00  0.00    -0.242 NA
ATOM     23  C   UNL     1      25.277   4.197  52.338  1.00  0.00     0.068 C 
ENDBRANCH  15  18
BRANCH  16  24
ATOM     24  C   UNL     1      28.955  -1.942  55.247  1.00  0.00     0.416 C 
ATOM     25  F   UNL     1      28.144  -2.992  55.008  1.00  0.00    -0.166 F 
ATOM     26  F   UNL     1      30.027  -2.534  55.761  1.00  0.00    -0.166 F 
ATOM     27  F   UNL     1      28.274  -1.223  56.163  1.00  0.00    -0.166 F 
ENDBRANCH  16  24
ENDBRANCH  10  12
ENDBRANCH   1   8
BRANCH   6  28
ATOM     28  N   UNL     1      37.143   0.842  49.076  1.00  0.00    -0.324 N 
ATOM     29  H   UNL     1      36.904   1.787  48.745  1.00  0.00     0.170 HD
BRANCH  28  30
ATOM     30  C   UNL     1      38.478   0.486  49.285  1.00  0.00     0.227 A 
ATOM     31  N   UNL     1      39.000  -0.253  50.255  1.00  0.00    -0.221 NA
ATOM     32  N   UNL     1      39.223   1.109  48.335  1.00  0.00    -0.213 NA
ATOM     33  C   UNL     1      40.338  -0.406  50.245  1.00  0.00     0.117 A 
ATOM     34  C   UNL     1      40.551   0.953  48.386  1.00  0.00     0.077 A 
ATOM     35  C   UNL     1      41.129   0.195  49.342  1.00  0.00     0.049 A 
BRANCH  34  36
ATOM     36  C   UNL     1      41.318   1.625  47.305  1.00  0.00     0.019 A 
ATOM     37  C   UNL     1      42.491   2.347  47.575  1.00  0.00     0.013 A 
ATOM     38  C   UNL     1      40.873   1.566  45.969  1.00  0.00     0.121 A 
ATOM     39  C   UNL     1      43.153   2.976  46.528  1.00  0.00     0.021 A 
ATOM     40  N   UNL     1      41.503   2.176  44.957  1.00  0.00    -0.264 NA
ATOM     41  C   UNL     1      42.636   2.839  45.240  1.00  0.00     0.111 A 
ENDBRANCH  34  36
ENDBRANCH  28  30
ENDBRANCH   6  28
TORSDOF 7
ENDMDL
MODEL 19
REMARK VINA RESULT:   -10.611      4.083     11.219
REMARK INTER + INTRA:         -13.931
REMARK INTER:                 -12.699
REMARK INTRA:                  -1.232
REMARK CONF_INDEPENDENT:        2.088
REMARK UNBOUND:                -1.232
REMARK SMILES Cc1cn(-c2cc(NC(=O)c3ccc(C)c(Nc4nccc(-c5cccnc5)n4)c3)cc(C(F)(F)F)c2)cn1
REMARK SMILES IDX 11 1 12 2 13 3 14 4 15 5 16 6 30 7 9 8 10 9 8 10 7 12 6 13
REMARK SMILES IDX 31 14 5 15 32 16 37 17 4 18 3 19 38 20 2 21 39 22 1 23 33 24
REMARK SMILES IDX 34 25 35 26 36 27 17 28 18 30 19 31 29 32 20 33 22 34 21 35
REMARK SMILES IDX 23 36 24 37 28 38 25 39 27 40 26 41
REMARK H PARENT 8 11 17 29
ROOT
ATOM      1  C   UNL     1      25.747   3.661  51.831  1.00  0.00     0.042 A 
ATOM      2  C   UNL     1      24.663   3.048  51.184  1.00  0.00     0.014 A 
ATOM      3  C   UNL     1      23.382   3.597  51.233  1.00  0.00     0.006 A 
ATOM      4  C   UNL     1      23.112   4.725  51.991  1.00  0.00    -0.027 A 
ATOM      5  C   UNL     1      21.708   5.310  52.042  1.00  0.00     0.046 C 
ATOM      6  C   UNL     1      24.163   5.280  52.720  1.00  0.00     0.045 A 
ATOM      7  C   UNL     1      25.448   4.728  52.638  1.00  0.00     0.040 A 
ENDROOT
BRANCH   1   8
ATOM      8  C   UNL     1      27.102   3.084  51.937  1.00  0.00     0.255 C 
ATOM      9  O   UNL     1      27.649   2.849  50.887  1.00  0.00    -0.269 OA
ATOM     10  N   UNL     1      27.666   3.121  53.153  1.00  0.00    -0.322 N 
ATOM     11  H   UNL     1      27.090   3.484  53.926  1.00  0.00     0.170 HD
BRANCH  10  12
ATOM     12  C   UNL     1      28.957   2.714  53.466  1.00  0.00     0.044 A 
ATOM     13  C   UNL     1      29.623   1.739  52.681  1.00  0.00     0.052 A 
ATOM     14  C   UNL     1      29.589   3.172  54.642  1.00  0.00     0.039 A 
ATOM     15  C   UNL     1      30.925   1.330  52.982  1.00  0.00     0.049 A 
ATOM     16  C   UNL     1      30.924   2.771  54.935  1.00  0.00     0.060 A 
ATOM     17  C   UNL     1      31.555   1.831  54.117  1.00  0.00     0.039 A 
BRANCH  15  18
ATOM     18  N   UNL     1      31.608   0.398  52.187  1.00  0.00    -0.306 N 
ATOM     19  C   UNL     1      31.182  -0.239  51.023  1.00  0.00     0.116 A 
ATOM     20  C   UNL     1      32.801  -0.152  52.443  1.00  0.00     0.204 A 
ATOM     21  C   UNL     1      32.136  -1.119  50.650  1.00  0.00     0.056 A 
ATOM     22  N   UNL     1      33.155  -1.026  51.533  1.00  0.00    -0.242 NA
ATOM     23  C   UNL     1      32.142  -2.028  49.445  1.00  0.00     0.068 C 
ENDBRANCH  15  18
BRANCH  16  24
ATOM     24  C   UNL     1      31.591   3.319  56.155  1.00  0.00     0.416 C 
ATOM     25  F   UNL     1      31.650   2.472  57.201  1.00  0.00    -0.166 F 
ATOM     26  F   UNL     1      32.876   3.564  55.927  1.00  0.00    -0.166 F 
ATOM     27  F   UNL     1      30.943   4.391  56.656  1.00  0.00    -0.166 F 
ENDBRANCH  16  24
ENDBRANCH  10  12
ENDBRANCH   1   8
BRANCH   6  28
ATOM     28  N   UNL     1      23.955   6.508  53.361  1.00  0.00    -0.324 N 
ATOM     29  H   UNL     1      24.262   7.384  52.916  1.00  0.00     0.170 HD
BRANCH  28  30
ATOM     30  C   UNL     1      23.327   6.534  54.608  1.00  0.00     0.227 A 
ATOM     31  N   UNL     1      22.032   6.606  54.887  1.00  0.00    -0.221 NA
ATOM     32  N   UNL     1      24.298   6.553  55.557  1.00  0.00    -0.213 NA
ATOM     33  C   UNL     1      21.695   6.661  56.189  1.00  0.00     0.117 A 
ATOM     34  C   UNL     1      23.915   6.641  56.837  1.00  0.00     0.077 A 
ATOM     35  C   UNL     1      22.609   6.698  57.172  1.00  0.00     0.049 A 
BRANCH  34  36
ATOM     36  C   UNL     1      25.013   6.623  57.838  1.00  0.00     0.019 A 
ATOM     37  C   UNL     1      24.751   6.600  59.217  1.00  0.00     0.013 A 
ATOM     38  C   UNL     1      26.360   6.644  57.424  1.00  0.00     0.121 A 
ATOM     39  C   UNL     1      25.817   6.610  60.108  1.00  0.00     0.021 A 
ATOM     40  N   UNL     1      27.391   6.662  58.278  1.00  0.00    -0.264 NA
ATOM     41  C   UNL     1      27.112   6.614  59.590  1.00  0.00     0.111 A 
ENDBRANCH  34  36
ENDBRANCH  28  30
ENDBRANCH   6  28
TORSDOF 7
ENDMDL
MODEL 20
REMARK VINA RESULT:   -10.390      2.814      5.049
REMARK INTER + INTRA:         -14.032
REMARK INTER:                 -12.478
REMARK INTRA:                  -1.554
REMARK CONF_INDEPENDENT:        2.088
REMARK UNBOUND:                -1.554
REMARK SMILES Cc1cn(-c2cc(NC(=O)c3ccc(C)c(Nc4nccc(-c5cccnc5)n4)c3)cc(C(F)(F)F)c2)cn1
REMARK SMILES IDX 11 1 12 2 13 3 14 4 15 5 16 6 30 7 9 8 10 9 8 10 7 12 6 13
REMARK SMILES IDX 31 14 5 15 32 16 37 17 4 18 3 19 38 20 2 21 39 22 1 23 33 24
REMARK SMILES IDX 34 25 35 26 36 27 17 28 18 30 19 31 29 32 20 33 22 34 21 35
REMARK SMILES IDX 23 36 24 37 28 38 25 39 27 40 26 41
REMARK H PARENT 8 11 17 29
ROOT
ATOM      1  C   UNL     1      27.272   1.787  53.286  1.00  0.00     0.042 A 
ATOM      2  C   UNL     1      27.128   1.082  54.490  1.00  0.00     0.014 A 
ATOM      3  C   UNL     1      27.906  -0.042  54.772  1.00  0.00     0.006 A 
ATOM      4  C   UNL     1      28.792  -0.555  53.839  1.00  0.00    -0.027 A 
ATOM      5  C   UNL     1      29.629  -1.786  54.157  1.00  0.00     0.046 C 
ATOM      6  C   UNL     1      28.865   0.080  52.600  1.00  0.00     0.045 A 
ATOM      7  C   UNL     1      28.094   1.221  52.346  1.00  0.00     0.040 A 
ENDROOT
BRANCH   1   8
ATOM      8  C   UNL     1      26.408   2.903  52.853  1.00  0.00     0.255 C 
ATOM      9  O   UNL     1      26.499   3.207  51.689  1.00  0.00    -0.269 OA
ATOM     10  N   UNL     1      25.453   3.280  53.716  1.00  0.00    -0.322 N 
ATOM     11  H   UNL     1      25.439   2.812  54.633  1.00  0.00     0.170 HD
BRANCH  10  12
ATOM     12  C   UNL     1      24.481   4.246  53.486  1.00  0.00     0.044 A 
ATOM     13  C   UNL     1      24.285   4.787  52.191  1.00  0.00     0.052 A 
ATOM     14  C   UNL     1      23.749   4.798  54.560  1.00  0.00     0.039 A 
ATOM     15  C   UNL     1      23.303   5.751  51.948  1.00  0.00     0.049 A 
ATOM     16  C   UNL     1      22.734   5.764  54.307  1.00  0.00     0.060 A 
ATOM     17  C   UNL     1      22.554   6.248  53.010  1.00  0.00     0.039 A 
BRANCH  15  18
ATOM     18  N   UNL     1      23.073   6.262  50.662  1.00  0.00    -0.306 N 
ATOM     19  C   UNL     1      22.932   5.574  49.459  1.00  0.00     0.116 A 
ATOM     20  C   UNL     1      23.032   7.552  50.308  1.00  0.00     0.204 A 
ATOM     21  C   UNL     1      22.811   6.481  48.465  1.00  0.00     0.056 A 
ATOM     22  N   UNL     1      22.843   7.713  49.021  1.00  0.00    -0.242 NA
ATOM     23  C   UNL     1      22.617   6.223  46.990  1.00  0.00     0.068 C 
ENDBRANCH  15  18
BRANCH  16  24
ATOM     24  C   UNL     1      21.933   6.287  55.455  1.00  0.00     0.416 C 
ATOM     25  F   UNL     1      20.923   5.490  55.855  1.00  0.00    -0.166 F 
ATOM     26  F   UNL     1      22.673   6.367  56.556  1.00  0.00    -0.166 F 
ATOM     27  F   UNL     1      21.317   7.451  55.163  1.00  0.00    -0.166 F 
ENDBRANCH  16  24
ENDBRANCH  10  12
ENDBRANCH   1   8
BRANCH   6  28
ATOM     28  N   UNL     1      29.865  -0.319  51.704  1.00  0.00    -0.324 N 
ATOM     29  H   UNL     1      29.644  -0.961  50.930  1.00  0.00     0.170 HD
BRANCH  28  30
ATOM     30  C   UNL     1      31.166   0.162  51.869  1.00  0.00     0.227 A 
ATOM     31  N   UNL     1      32.264  -0.162  51.198  1.00  0.00    -0.221 NA
ATOM     32  N   UNL     1      31.161   1.007  52.932  1.00  0.00    -0.213 NA
ATOM     33  C   UNL     1      33.410   0.425  51.594  1.00  0.00     0.117 A 
ATOM     34  C   UNL     1      32.329   1.541  53.307  1.00  0.00     0.077 A 
ATOM     35  C   UNL     1      33.471   1.256  52.646  1.00  0.00     0.049 A 
BRANCH  34  36
ATOM     36  C   UNL     1      32.265   2.486  54.453  1.00  0.00     0.019 A 
ATOM     37  C   UNL     1      33.246   3.470  54.650  1.00  0.00     0.013 A 
ATOM     38  C   UNL     1      31.214   2.406  55.388  1.00  0.00     0.121 A 
ATOM     39  C   UNL     1      33.148   4.310  55.752  1.00  0.00     0.021 A 
ATOM     40  N   UNL     1      31.119   3.207  56.457  1.00  0.00    -0.264 NA
ATOM     41  C   UNL     1      32.057   4.156  56.607  1.00  0.00     0.111 A 
ENDBRANCH  34  36
ENDBRANCH  28  30
ENDBRANCH   6  28
TORSDOF 7
ENDMDL
