MODEL 1
REMARK VINA RESULT:   -14.417      0.000      0.000
REMARK INTER + INTRA:         -17.668
REMARK INTER:                 -16.505
REMARK INTRA:                  -1.163
REMARK CONF_INDEPENDENT:        2.088
REMARK UNBOUND:                -1.163
REMARK SMILES Cc1cn(-c2cc(NC(=O)c3ccc(C)c(Nc4nccc(-c5cccnc5)n4)c3)cc(C(F)(F)F)c2)cn1
REMARK SMILES IDX 11 1 12 2 13 3 14 4 15 5 16 6 30 7 9 8 10 9 8 10 7 12 6 13
REMARK SMILES IDX 31 14 5 15 32 16 37 17 4 18 3 19 38 20 2 21 39 22 1 23 33 24
REMARK SMILES IDX 34 25 35 26 36 27 17 28 18 30 19 31 29 32 20 33 22 34 21 35
REMARK SMILES IDX 23 36 24 37 28 38 25 39 27 40 26 41
REMARK H PARENT 8 11 17 29
ROOT
ATOM      1  C   UNL     1      27.938   1.671  53.097  1.00  0.00     0.042 A 
ATOM      2  C   UNL     1      27.630   1.135  54.356  1.00  0.00     0.014 A 
ATOM      3  C   UNL     1      28.338   0.051  54.878  1.00  0.00     0.006 A 
ATOM      4  C   UNL     1      29.317  -0.591  54.138  1.00  0.00    -0.027 A 
ATOM      5  C   UNL     1      30.075  -1.777  54.717  1.00  0.00     0.046 C 
ATOM      6  C   UNL     1      29.556  -0.129  52.845  1.00  0.00     0.045 A 
ATOM      7  C   UNL     1      28.853   0.976  52.349  1.00  0.00     0.040 A 
ENDROOT
BRANCH   1   8
ATOM      8  C   UNL     1      27.164   2.728  52.417  1.00  0.00     0.255 C 
ATOM      9  O   UNL     1      27.451   2.919  51.261  1.00  0.00    -0.269 OA
ATOM     10  N   UNL     1      26.078   3.175  53.065  1.00  0.00    -0.322 N 
ATOM     11  H   UNL     1      25.908   2.797  54.008  1.00  0.00     0.170 HD
BRANCH  10  12
ATOM     12  C   UNL     1      25.162   4.101  52.581  1.00  0.00     0.044 A 
ATOM     13  C   UNL     1      24.235   4.729  53.450  1.00  0.00     0.052 A 
ATOM     14  C   UNL     1      25.054   4.346  51.195  1.00  0.00     0.039 A 
ATOM     15  C   UNL     1      23.317   5.669  52.974  1.00  0.00     0.049 A 
ATOM     16  C   UNL     1      24.133   5.320  50.715  1.00  0.00     0.060 A 
ATOM     17  C   UNL     1      23.257   5.939  51.610  1.00  0.00     0.039 A 
BRANCH  15  18
ATOM     18  N   UNL     1      22.423   6.327  53.832  1.00  0.00    -0.306 N 
ATOM     19  C   UNL     1      22.137   6.062  55.170  1.00  0.00     0.116 A 
ATOM     20  C   UNL     1      21.576   7.310  53.505  1.00  0.00     0.204 A 
ATOM     21  C   UNL     1      21.150   6.896  55.564  1.00  0.00     0.056 A 
ATOM     22  N   UNL     1      20.835   7.691  54.517  1.00  0.00    -0.242 NA
ATOM     23  C   UNL     1      20.514   7.003  56.929  1.00  0.00     0.068 C 
ENDBRANCH  15  18
BRANCH  16  24
ATOM     24  C   UNL     1      24.082   5.604  49.249  1.00  0.00     0.416 C 
ATOM     25  F   UNL     1      24.892   6.597  48.832  1.00  0.00    -0.166 F 
ATOM     26  F   UNL     1      24.530   4.570  48.547  1.00  0.00    -0.166 F 
ATOM     27  F   UNL     1      22.859   6.008  48.847  1.00  0.00    -0.166 F 
ENDBRANCH  16  24
ENDBRANCH  10  12
ENDBRANCH   1   8
BRANCH   6  28
ATOM     28  N   UNL     1      30.647  -0.654  52.140  1.00  0.00    -0.324 N 
ATOM     29  H   UNL     1      30.525  -1.475  51.531  1.00  0.00     0.170 HD
BRANCH  28  30
ATOM     30  C   UNL     1      31.902  -0.055  52.271  1.00  0.00     0.227 A 
ATOM     31  N   UNL     1      32.278   0.919  53.089  1.00  0.00    -0.221 NA
ATOM     32  N   UNL     1      32.716  -0.595  51.327  1.00  0.00    -0.213 NA
ATOM     33  C   UNL     1      33.550   1.346  52.978  1.00  0.00     0.117 A 
ATOM     34  C   UNL     1      33.962  -0.116  51.234  1.00  0.00     0.077 A 
ATOM     35  C   UNL     1      34.397   0.863  52.056  1.00  0.00     0.049 A 
BRANCH  34  36
ATOM     36  C   UNL     1      34.823  -0.763  50.210  1.00  0.00     0.019 A 
ATOM     37  C   UNL     1      36.050  -0.203  49.820  1.00  0.00     0.013 A 
ATOM     38  C   UNL     1      34.418  -1.960  49.587  1.00  0.00     0.121 A 
ATOM     39  C   UNL     1      36.802  -0.838  48.840  1.00  0.00     0.021 A 
ATOM     40  N   UNL     1      35.135  -2.573  48.636  1.00  0.00    -0.264 NA
ATOM     41  C   UNL     1      36.316  -2.029  48.301  1.00  0.00     0.111 A 
ENDBRANCH  34  36
ENDBRANCH  28  30
ENDBRANCH   6  28
TORSDOF 7
ENDMDL
MODEL 2
REMARK VINA RESULT:   -13.270      2.297      3.585
REMARK INTER + INTRA:         -16.598
REMARK INTER:                 -15.358
REMARK INTRA:                  -1.241
REMARK CONF_INDEPENDENT:        2.088
REMARK UNBOUND:                -1.241
REMARK SMILES Cc1cn(-c2cc(NC(=O)c3ccc(C)c(Nc4nccc(-c5cccnc5)n4)c3)cc(C(F)(F)F)c2)cn1
REMARK SMILES IDX 11 1 12 2 13 3 14 4 15 5 16 6 30 7 9 8 10 9 8 10 7 12 6 13
REMARK SMILES IDX 31 14 5 15 32 16 37 17 4 18 3 19 38 20 2 21 39 22 1 23 33 24
REMARK SMILES IDX 34 25 35 26 36 27 17 28 18 30 19 31 29 32 20 33 22 34 21 35
REMARK SMILES IDX 23 36 24 37 28 38 25 39 27 40 26 41
REMARK H PARENT 8 11 17 29
ROOT
ATOM      1  C   UNL     1      28.347   1.637  53.442  1.00  0.00     0.042 A 
ATOM      2  C   UNL     1      28.049   0.976  54.643  1.00  0.00     0.014 A 
ATOM      3  C   UNL     1      28.734  -0.178  55.026  1.00  0.00     0.006 A 
ATOM      4  C   UNL     1      29.676  -0.764  54.195  1.00  0.00    -0.027 A 
ATOM      5  C   UNL     1      30.409  -2.027  54.623  1.00  0.00     0.046 C 
ATOM      6  C   UNL     1      29.902  -0.170  52.955  1.00  0.00     0.045 A 
ATOM      7  C   UNL     1      29.223   1.003  52.600  1.00  0.00     0.040 A 
ENDROOT
BRANCH   1   8
ATOM      8  C   UNL     1      27.591   2.784  52.901  1.00  0.00     0.255 C 
ATOM      9  O   UNL     1      27.995   3.222  51.851  1.00  0.00    -0.269 OA
ATOM     10  N   UNL     1      26.414   3.047  53.488  1.00  0.00    -0.322 N 
ATOM     11  H   UNL     1      26.162   2.476  54.307  1.00  0.00     0.170 HD
BRANCH  10  12
ATOM     12  C   UNL     1      25.504   4.020  53.093  1.00  0.00     0.044 A 
ATOM     13  C   UNL     1      25.137   4.162  51.732  1.00  0.00     0.052 A 
ATOM     14  C   UNL     1      25.018   4.967  54.021  1.00  0.00     0.039 A 
ATOM     15  C   UNL     1      24.215   5.131  51.327  1.00  0.00     0.049 A 
ATOM     16  C   UNL     1      24.062   5.939  53.610  1.00  0.00     0.060 A 
ATOM     17  C   UNL     1      23.704   6.025  52.262  1.00  0.00     0.039 A 
BRANCH  15  18
ATOM     18  N   UNL     1      23.813   5.253  49.988  1.00  0.00    -0.306 N 
ATOM     19  C   UNL     1      22.575   5.638  49.477  1.00  0.00     0.116 A 
ATOM     20  C   UNL     1      24.527   4.927  48.904  1.00  0.00     0.204 A 
ATOM     21  C   UNL     1      22.620   5.527  48.132  1.00  0.00     0.056 A 
ATOM     22  N   UNL     1      23.860   5.112  47.791  1.00  0.00    -0.242 NA
ATOM     23  C   UNL     1      21.532   5.848  47.136  1.00  0.00     0.068 C 
ENDBRANCH  15  18
BRANCH  16  24
ATOM     24  C   UNL     1      23.518   6.891  54.626  1.00  0.00     0.416 C 
ATOM     25  F   UNL     1      23.322   6.365  55.851  1.00  0.00    -0.166 F 
ATOM     26  F   UNL     1      24.385   7.864  54.879  1.00  0.00    -0.166 F 
ATOM     27  F   UNL     1      22.300   7.361  54.287  1.00  0.00    -0.166 F 
ENDBRANCH  16  24
ENDBRANCH  10  12
ENDBRANCH   1   8
BRANCH   6  28
ATOM     28  N   UNL     1      30.960  -0.646  52.170  1.00  0.00    -0.324 N 
ATOM     29  H   UNL     1      30.820  -1.449  51.541  1.00  0.00     0.170 HD
BRANCH  28  30
ATOM     30  C   UNL     1      32.207  -0.022  52.248  1.00  0.00     0.227 A 
ATOM     31  N   UNL     1      32.574   1.015  52.990  1.00  0.00    -0.221 NA
ATOM     32  N   UNL     1      33.024  -0.619  51.342  1.00  0.00    -0.213 NA
ATOM     33  C   UNL     1      33.840   1.449  52.840  1.00  0.00     0.117 A 
ATOM     34  C   UNL     1      34.263  -0.133  51.206  1.00  0.00     0.077 A 
ATOM     35  C   UNL     1      34.689   0.910  51.950  1.00  0.00     0.049 A 
BRANCH  34  36
ATOM     36  C   UNL     1      35.127  -0.843  50.227  1.00  0.00     0.019 A 
ATOM     37  C   UNL     1      36.497  -0.554  50.111  1.00  0.00     0.013 A 
ATOM     38  C   UNL     1      34.585  -1.822  49.373  1.00  0.00     0.121 A 
ATOM     39  C   UNL     1      37.251  -1.232  49.161  1.00  0.00     0.021 A 
ATOM     40  N   UNL     1      35.305  -2.473  48.450  1.00  0.00    -0.264 NA
ATOM     41  C   UNL     1      36.618  -2.196  48.378  1.00  0.00     0.111 A 
ENDBRANCH  34  36
ENDBRANCH  28  30
ENDBRANCH   6  28
TORSDOF 7
ENDMDL
MODEL 3
REMARK VINA RESULT:   -12.211      1.567      2.301
REMARK INTER + INTRA:         -15.824
REMARK INTER:                 -14.299
REMARK INTRA:                  -1.525
REMARK CONF_INDEPENDENT:        2.088
REMARK UNBOUND:                -1.525
REMARK SMILES Cc1cn(-c2cc(NC(=O)c3ccc(C)c(Nc4nccc(-c5cccnc5)n4)c3)cc(C(F)(F)F)c2)cn1
REMARK SMILES IDX 11 1 12 2 13 3 14 4 15 5 16 6 30 7 9 8 10 9 8 10 7 12 6 13
REMARK SMILES IDX 31 14 5 15 32 16 37 17 4 18 3 19 38 20 2 21 39 22 1 23 33 24
REMARK SMILES IDX 34 25 35 26 36 27 17 28 18 30 19 31 29 32 20 33 22 34 21 35
REMARK SMILES IDX 23 36 24 37 28 38 25 39 27 40 26 41
REMARK H PARENT 8 11 17 29
ROOT
ATOM      1  C   UNL     1      28.256   1.865  53.050  1.00  0.00     0.042 A 
ATOM      2  C   UNL     1      27.823   0.608  53.499  1.00  0.00     0.014 A 
ATOM      3  C   UNL     1      28.660  -0.227  54.241  1.00  0.00     0.006 A 
ATOM      4  C   UNL     1      29.979   0.117  54.491  1.00  0.00    -0.027 A 
ATOM      5  C   UNL     1      30.883  -0.806  55.295  1.00  0.00     0.046 C 
ATOM      6  C   UNL     1      30.446   1.318  53.959  1.00  0.00     0.045 A 
ATOM      7  C   UNL     1      29.582   2.154  53.239  1.00  0.00     0.040 A 
ENDROOT
BRANCH   1   8
ATOM      8  C   UNL     1      27.485   2.753  52.158  1.00  0.00     0.255 C 
ATOM      9  O   UNL     1      27.907   2.848  51.031  1.00  0.00    -0.269 OA
ATOM     10  N   UNL     1      26.285   3.148  52.609  1.00  0.00    -0.322 N 
ATOM     11  H   UNL     1      26.025   2.858  53.562  1.00  0.00     0.170 HD
BRANCH  10  12
ATOM     12  C   UNL     1      25.361   3.912  51.907  1.00  0.00     0.044 A 
ATOM     13  C   UNL     1      24.574   4.889  52.567  1.00  0.00     0.052 A 
ATOM     14  C   UNL     1      25.099   3.650  50.545  1.00  0.00     0.039 A 
ATOM     15  C   UNL     1      23.649   5.669  51.868  1.00  0.00     0.049 A 
ATOM     16  C   UNL     1      24.172   4.461  49.830  1.00  0.00     0.060 A 
ATOM     17  C   UNL     1      23.439   5.434  50.513  1.00  0.00     0.039 A 
BRANCH  15  18
ATOM     18  N   UNL     1      22.895   6.667  52.504  1.00  0.00    -0.306 N 
ATOM     19  C   UNL     1      22.666   7.981  52.101  1.00  0.00     0.116 A 
ATOM     20  C   UNL     1      22.305   6.584  53.702  1.00  0.00     0.204 A 
ATOM     21  C   UNL     1      21.955   8.601  53.069  1.00  0.00     0.056 A 
ATOM     22  N   UNL     1      21.711   7.701  54.047  1.00  0.00    -0.242 NA
ATOM     23  C   UNL     1      21.449  10.023  53.083  1.00  0.00     0.068 C 
ENDBRANCH  15  18
BRANCH  16  24
ATOM     24  C   UNL     1      23.958   4.200  48.374  1.00  0.00     0.416 C 
ATOM     25  F   UNL     1      24.552   3.086  47.902  1.00  0.00    -0.166 F 
ATOM     26  F   UNL     1      22.678   3.960  48.115  1.00  0.00    -0.166 F 
ATOM     27  F   UNL     1      24.467   5.179  47.597  1.00  0.00    -0.166 F 
ENDBRANCH  16  24
ENDBRANCH  10  12
ENDBRANCH   1   8
BRANCH   6  28
ATOM     28  N   UNL     1      31.720   1.763  54.334  1.00  0.00    -0.324 N 
ATOM     29  H   UNL     1      31.825   2.489  55.057  1.00  0.00     0.170 HD
BRANCH  28  30
ATOM     30  C   UNL     1      32.847   1.214  53.720  1.00  0.00     0.227 A 
ATOM     31  N   UNL     1      34.125   1.345  54.055  1.00  0.00    -0.221 NA
ATOM     32  N   UNL     1      32.429   0.545  52.614  1.00  0.00    -0.213 NA
ATOM     33  C   UNL     1      35.025   0.739  53.257  1.00  0.00     0.117 A 
ATOM     34  C   UNL     1      33.363  -0.013  51.835  1.00  0.00     0.077 A 
ATOM     35  C   UNL     1      34.675   0.077  52.143  1.00  0.00     0.049 A 
BRANCH  34  36
ATOM     36  C   UNL     1      32.853  -0.762  50.658  1.00  0.00     0.019 A 
ATOM     37  C   UNL     1      31.477  -0.921  50.426  1.00  0.00     0.013 A 
ATOM     38  C   UNL     1      33.747  -1.352  49.742  1.00  0.00     0.121 A 
ATOM     39  C   UNL     1      31.058  -1.653  49.323  1.00  0.00     0.021 A 
ATOM     40  N   UNL     1      33.349  -2.066  48.681  1.00  0.00    -0.264 NA
ATOM     41  C   UNL     1      32.027  -2.179  48.470  1.00  0.00     0.111 A 
ENDBRANCH  34  36
ENDBRANCH  28  30
ENDBRANCH   6  28
TORSDOF 7
ENDMDL
MODEL 4
REMARK VINA RESULT:   -12.197      1.561      3.576
REMARK INTER + INTRA:         -15.849
REMARK INTER:                 -14.285
REMARK INTRA:                  -1.564
REMARK CONF_INDEPENDENT:        2.088
REMARK UNBOUND:                -1.564
REMARK SMILES Cc1cn(-c2cc(NC(=O)c3ccc(C)c(Nc4nccc(-c5cccnc5)n4)c3)cc(C(F)(F)F)c2)cn1
REMARK SMILES IDX 11 1 12 2 13 3 14 4 15 5 16 6 30 7 9 8 10 9 8 10 7 12 6 13
REMARK SMILES IDX 31 14 5 15 32 16 37 17 4 18 3 19 38 20 2 21 39 22 1 23 33 24
REMARK SMILES IDX 34 25 35 26 36 27 17 28 18 30 19 31 29 32 20 33 22 34 21 35
REMARK SMILES IDX 23 36 24 37 28 38 25 39 27 40 26 41
REMARK H PARENT 8 11 17 29
ROOT
ATOM      1  C   UNL     1      27.662   1.664  52.939  1.00  0.00     0.042 A 
ATOM      2  C   UNL     1      27.349   1.047  54.160  1.00  0.00     0.014 A 
ATOM      3  C   UNL     1      28.056  -0.067  54.614  1.00  0.00     0.006 A 
ATOM      4  C   UNL     1      29.041  -0.658  53.838  1.00  0.00    -0.027 A 
ATOM      5  C   UNL     1      29.799  -1.878  54.343  1.00  0.00     0.046 C 
ATOM      6  C   UNL     1      29.286  -0.112  52.579  1.00  0.00     0.045 A 
ATOM      7  C   UNL     1      28.582   1.021  52.153  1.00  0.00     0.040 A 
ENDROOT
BRANCH   1   8
ATOM      8  C   UNL     1      26.889   2.761  52.326  1.00  0.00     0.255 C 
ATOM      9  O   UNL     1      27.154   3.001  51.173  1.00  0.00    -0.269 OA
ATOM     10  N   UNL     1      25.823   3.193  53.018  1.00  0.00    -0.322 N 
ATOM     11  H   UNL     1      25.668   2.775  53.946  1.00  0.00     0.170 HD
BRANCH  10  12
ATOM     12  C   UNL     1      24.911   4.152  52.597  1.00  0.00     0.044 A 
ATOM     13  C   UNL     1      24.039   4.781  53.519  1.00  0.00     0.052 A 
ATOM     14  C   UNL     1      24.749   4.435  51.223  1.00  0.00     0.039 A 
ATOM     15  C   UNL     1      23.124   5.754  53.107  1.00  0.00     0.049 A 
ATOM     16  C   UNL     1      23.833   5.442  50.807  1.00  0.00     0.060 A 
ATOM     17  C   UNL     1      23.012   6.059  51.754  1.00  0.00     0.039 A 
BRANCH  15  18
ATOM     18  N   UNL     1      22.286   6.412  54.019  1.00  0.00    -0.306 N 
ATOM     19  C   UNL     1      22.135   6.192  55.387  1.00  0.00     0.116 A 
ATOM     20  C   UNL     1      21.371   7.347  53.735  1.00  0.00     0.204 A 
ATOM     21  C   UNL     1      21.154   7.002  55.839  1.00  0.00     0.056 A 
ATOM     22  N   UNL     1      20.711   7.740  54.797  1.00  0.00    -0.242 NA
ATOM     23  C   UNL     1      20.641   7.141  57.253  1.00  0.00     0.068 C 
ENDBRANCH  15  18
BRANCH  16  24
ATOM     24  C   UNL     1      23.725   5.764  49.352  1.00  0.00     0.416 C 
ATOM     25  F   UNL     1      24.902   5.866  48.702  1.00  0.00    -0.166 F 
ATOM     26  F   UNL     1      23.130   4.779  48.688  1.00  0.00    -0.166 F 
ATOM     27  F   UNL     1      23.140   6.959  49.132  1.00  0.00    -0.166 F 
ENDBRANCH  16  24
ENDBRANCH  10  12
ENDBRANCH   1   8
BRANCH   6  28
ATOM     28  N   UNL     1      30.382  -0.588  51.848  1.00  0.00    -0.324 N 
ATOM     29  H   UNL     1      30.266  -1.371  51.190  1.00  0.00     0.170 HD
BRANCH  28  30
ATOM     30  C   UNL     1      31.633   0.008  52.019  1.00  0.00     0.227 A 
ATOM     31  N   UNL     1      32.770  -0.246  51.384  1.00  0.00    -0.221 NA
ATOM     32  N   UNL     1      31.532   0.889  53.048  1.00  0.00    -0.213 NA
ATOM     33  C   UNL     1      33.853   0.451  51.779  1.00  0.00     0.117 A 
ATOM     34  C   UNL     1      32.642   1.535  53.425  1.00  0.00     0.077 A 
ATOM     35  C   UNL     1      33.819   1.324  52.798  1.00  0.00     0.049 A 
BRANCH  34  36
ATOM     36  C   UNL     1      32.471   2.513  54.530  1.00  0.00     0.019 A 
ATOM     37  C   UNL     1      33.351   3.594  54.698  1.00  0.00     0.013 A 
ATOM     38  C   UNL     1      31.420   2.370  55.457  1.00  0.00     0.121 A 
ATOM     39  C   UNL     1      33.158   4.463  55.764  1.00  0.00     0.021 A 
ATOM     40  N   UNL     1      31.233   3.199  56.492  1.00  0.00    -0.264 NA
ATOM     41  C   UNL     1      32.074   4.239  56.613  1.00  0.00     0.111 A 
ENDBRANCH  34  36
ENDBRANCH  28  30
ENDBRANCH   6  28
TORSDOF 7
ENDMDL
MODEL 5
REMARK VINA RESULT:   -11.565      4.139     11.201
REMARK INTER + INTRA:         -14.838
REMARK INTER:                 -13.653
REMARK INTRA:                  -1.185
REMARK CONF_INDEPENDENT:        2.088
REMARK UNBOUND:                -1.185
REMARK SMILES Cc1cn(-c2cc(NC(=O)c3ccc(C)c(Nc4nccc(-c5cccnc5)n4)c3)cc(C(F)(F)F)c2)cn1
REMARK SMILES IDX 11 1 12 2 13 3 14 4 15 5 16 6 30 7 9 8 10 9 8 10 7 12 6 13
REMARK SMILES IDX 31 14 5 15 32 16 37 17 4 18 3 19 38 20 2 21 39 22 1 23 33 24
REMARK SMILES IDX 34 25 35 26 36 27 17 28 18 30 19 31 29 32 20 33 22 34 21 35
REMARK SMILES IDX 23 36 24 37 28 38 25 39 27 40 26 41
REMARK H PARENT 8 11 17 29
ROOT
ATOM      1  C   UNL     1      25.848   3.900  52.049  1.00  0.00     0.042 A 
ATOM      2  C   UNL     1      25.252   4.414  50.888  1.00  0.00     0.014 A 
ATOM      3  C   UNL     1      24.144   5.260  50.952  1.00  0.00     0.006 A 
ATOM      4  C   UNL     1      23.538   5.559  52.162  1.00  0.00    -0.027 A 
ATOM      5  C   UNL     1      22.326   6.477  52.217  1.00  0.00     0.046 C 
ATOM      6  C   UNL     1      24.062   4.968  53.311  1.00  0.00     0.045 A 
ATOM      7  C   UNL     1      25.190   4.141  53.227  1.00  0.00     0.040 A 
ENDROOT
BRANCH   1   8
ATOM      8  C   UNL     1      26.936   2.903  52.068  1.00  0.00     0.255 C 
ATOM      9  O   UNL     1      27.607   2.849  51.067  1.00  0.00    -0.269 OA
ATOM     10  N   UNL     1      27.217   2.356  53.261  1.00  0.00    -0.322 N 
ATOM     11  H   UNL     1      26.613   2.622  54.051  1.00  0.00     0.170 HD
BRANCH  10  12
ATOM     12  C   UNL     1      28.249   1.464  53.527  1.00  0.00     0.044 A 
ATOM     13  C   UNL     1      29.556   1.696  53.033  1.00  0.00     0.052 A 
ATOM     14  C   UNL     1      27.990   0.246  54.193  1.00  0.00     0.039 A 
ATOM     15  C   UNL     1      30.602   0.810  53.304  1.00  0.00     0.049 A 
ATOM     16  C   UNL     1      29.062  -0.645  54.487  1.00  0.00     0.060 A 
ATOM     17  C   UNL     1      30.342  -0.362  54.007  1.00  0.00     0.039 A 
BRANCH  15  18
ATOM     18  N   UNL     1      31.909   1.052  52.855  1.00  0.00    -0.306 N 
ATOM     19  C   UNL     1      32.536   0.597  51.696  1.00  0.00     0.116 A 
ATOM     20  C   UNL     1      32.873   1.710  53.511  1.00  0.00     0.204 A 
ATOM     21  C   UNL     1      33.822   1.008  51.722  1.00  0.00     0.056 A 
ATOM     22  N   UNL     1      34.004   1.731  52.850  1.00  0.00    -0.242 NA
ATOM     23  C   UNL     1      34.892   0.780  50.682  1.00  0.00     0.068 C 
ENDBRANCH  15  18
BRANCH  16  24
ATOM     24  C   UNL     1      28.770  -1.898  55.246  1.00  0.00     0.416 C 
ATOM     25  F   UNL     1      27.918  -2.747  54.638  1.00  0.00    -0.166 F 
ATOM     26  F   UNL     1      29.860  -2.645  55.372  1.00  0.00    -0.166 F 
ATOM     27  F   UNL     1      28.174  -1.653  56.432  1.00  0.00    -0.166 F 
ENDBRANCH  16  24
ENDBRANCH  10  12
ENDBRANCH   1   8
BRANCH   6  28
ATOM     28  N   UNL     1      23.572   5.380  54.556  1.00  0.00    -0.324 N 
ATOM     29  H   UNL     1      22.850   4.826  55.040  1.00  0.00     0.170 HD
BRANCH  28  30
ATOM     30  C   UNL     1      24.068   6.549  55.137  1.00  0.00     0.227 A 
ATOM     31  N   UNL     1      24.145   7.768  54.619  1.00  0.00    -0.221 NA
ATOM     32  N   UNL     1      24.563   6.223  56.359  1.00  0.00    -0.213 NA
ATOM     33  C   UNL     1      24.715   8.717  55.387  1.00  0.00     0.117 A 
ATOM     34  C   UNL     1      25.149   7.193  57.071  1.00  0.00     0.077 A 
ATOM     35  C   UNL     1      25.235   8.453  56.595  1.00  0.00     0.049 A 
BRANCH  34  36
ATOM     36  C   UNL     1      25.642   6.794  58.415  1.00  0.00     0.019 A 
ATOM     37  C   UNL     1      24.759   6.472  59.458  1.00  0.00     0.013 A 
ATOM     38  C   UNL     1      27.024   6.742  58.683  1.00  0.00     0.121 A 
ATOM     39  C   UNL     1      25.277   6.130  60.700  1.00  0.00     0.021 A 
ATOM     40  N   UNL     1      27.529   6.421  59.881  1.00  0.00    -0.264 NA
ATOM     41  C   UNL     1      26.662   6.093  60.853  1.00  0.00     0.111 A 
ENDBRANCH  34  36
ENDBRANCH  28  30
ENDBRANCH   6  28
TORSDOF 7
ENDMDL
MODEL 6
REMARK VINA RESULT:   -11.481      4.239     10.554
REMARK INTER + INTRA:         -14.833
REMARK INTER:                 -13.569
REMARK INTRA:                  -1.264
REMARK CONF_INDEPENDENT:        2.088
REMARK UNBOUND:                -1.264
REMARK SMILES Cc1cn(-c2cc(NC(=O)c3ccc(C)c(Nc4nccc(-c5cccnc5)n4)c3)cc(C(F)(F)F)c2)cn1
REMARK SMILES IDX 11 1 12 2 13 3 14 4 15 5 16 6 30 7 9 8 10 9 8 10 7 12 6 13
REMARK SMILES IDX 31 14 5 15 32 16 37 17 4 18 3 19 38 20 2 21 39 22 1 23 33 24
REMARK SMILES IDX 34 25 35 26 36 27 17 28 18 30 19 31 29 32 20 33 22 34 21 35
REMARK SMILES IDX 23 36 24 37 28 38 25 39 27 40 26 41
REMARK H PARENT 8 11 17 29
ROOT
ATOM      1  C   UNL     1      25.856   4.179  52.996  1.00  0.00     0.042 A 
ATOM      2  C   UNL     1      25.658   5.061  54.069  1.00  0.00     0.014 A 
ATOM      3  C   UNL     1      24.620   5.994  54.062  1.00  0.00     0.006 A 
ATOM      4  C   UNL     1      23.795   6.142  52.959  1.00  0.00    -0.027 A 
ATOM      5  C   UNL     1      22.671   7.169  52.962  1.00  0.00     0.046 C 
ATOM      6  C   UNL     1      24.051   5.339  51.848  1.00  0.00     0.045 A 
ATOM      7  C   UNL     1      25.082   4.392  51.885  1.00  0.00     0.040 A 
ENDROOT
BRANCH   1   8
ATOM      8  C   UNL     1      26.998   3.253  52.865  1.00  0.00     0.255 C 
ATOM      9  O   UNL     1      27.773   3.509  51.976  1.00  0.00    -0.269 OA
ATOM     10  N   UNL     1      27.186   2.398  53.881  1.00  0.00    -0.322 N 
ATOM     11  H   UNL     1      26.486   2.408  54.636  1.00  0.00     0.170 HD
BRANCH  10  12
ATOM     12  C   UNL     1      28.239   1.500  54.007  1.00  0.00     0.044 A 
ATOM     13  C   UNL     1      29.522   1.807  53.493  1.00  0.00     0.052 A 
ATOM     14  C   UNL     1      28.023   0.212  54.544  1.00  0.00     0.039 A 
ATOM     15  C   UNL     1      30.590   0.915  53.624  1.00  0.00     0.049 A 
ATOM     16  C   UNL     1      29.116  -0.687  54.697  1.00  0.00     0.060 A 
ATOM     17  C   UNL     1      30.373  -0.332  54.202  1.00  0.00     0.039 A 
BRANCH  15  18
ATOM     18  N   UNL     1      31.875   1.227  53.155  1.00  0.00    -0.306 N 
ATOM     19  C   UNL     1      32.584   0.657  52.099  1.00  0.00     0.116 A 
ATOM     20  C   UNL     1      32.737   2.094  53.698  1.00  0.00     0.204 A 
ATOM     21  C   UNL     1      33.814   1.214  52.068  1.00  0.00     0.056 A 
ATOM     22  N   UNL     1      33.879   2.134  53.056  1.00  0.00    -0.242 NA
ATOM     23  C   UNL     1      34.935   0.938  51.095  1.00  0.00     0.068 C 
ENDBRANCH  15  18
BRANCH  16  24
ATOM     24  C   UNL     1      28.871  -2.022  55.323  1.00  0.00     0.416 C 
ATOM     25  F   UNL     1      28.048  -2.834  54.631  1.00  0.00    -0.166 F 
ATOM     26  F   UNL     1      29.988  -2.738  55.372  1.00  0.00    -0.166 F 
ATOM     27  F   UNL     1      28.271  -1.920  56.527  1.00  0.00    -0.166 F 
ENDBRANCH  16  24
ENDBRANCH  10  12
ENDBRANCH   1   8
BRANCH   6  28
ATOM     28  N   UNL     1      23.135   5.355  50.789  1.00  0.00    -0.324 N 
ATOM     29  H   UNL     1      22.243   5.861  50.881  1.00  0.00     0.170 HD
BRANCH  28  30
ATOM     30  C   UNL     1      23.441   4.678  49.606  1.00  0.00     0.227 A 
ATOM     31  N   UNL     1      24.088   5.123  48.536  1.00  0.00    -0.221 NA
ATOM     32  N   UNL     1      22.879   3.444  49.680  1.00  0.00    -0.213 NA
ATOM     33  C   UNL     1      24.210   4.268  47.503  1.00  0.00     0.117 A 
ATOM     34  C   UNL     1      22.998   2.642  48.616  1.00  0.00     0.077 A 
ATOM     35  C   UNL     1      23.663   3.042  47.511  1.00  0.00     0.049 A 
BRANCH  34  36
ATOM     36  C   UNL     1      22.397   1.290  48.760  1.00  0.00     0.019 A 
ATOM     37  C   UNL     1      22.318   0.650  50.007  1.00  0.00     0.013 A 
ATOM     38  C   UNL     1      21.900   0.605  47.635  1.00  0.00     0.121 A 
ATOM     39  C   UNL     1      21.768  -0.624  50.078  1.00  0.00     0.021 A 
ATOM     40  N   UNL     1      21.376  -0.626  47.695  1.00  0.00    -0.264 NA
ATOM     41  C   UNL     1      21.289  -1.205  48.904  1.00  0.00     0.111 A 
ENDBRANCH  34  36
ENDBRANCH  28  30
ENDBRANCH   6  28
TORSDOF 7
ENDMDL
MODEL 7
REMARK VINA RESULT:   -11.458      2.124      3.228
REMARK INTER + INTRA:         -14.830
REMARK INTER:                 -13.546
REMARK INTRA:                  -1.284
REMARK CONF_INDEPENDENT:        2.088
REMARK UNBOUND:                -1.284
REMARK SMILES Cc1cn(-c2cc(NC(=O)c3ccc(C)c(Nc4nccc(-c5cccnc5)n4)c3)cc(C(F)(F)F)c2)cn1
REMARK SMILES IDX 11 1 12 2 13 3 14 4 15 5 16 6 30 7 9 8 10 9 8 10 7 12 6 13
REMARK SMILES IDX 31 14 5 15 32 16 37 17 4 18 3 19 38 20 2 21 39 22 1 23 33 24
REMARK SMILES IDX 34 25 35 26 36 27 17 28 18 30 19 31 29 32 20 33 22 34 21 35
REMARK SMILES IDX 23 36 24 37 28 38 25 39 27 40 26 41
REMARK H PARENT 8 11 17 29
ROOT
ATOM      1  C   UNL     1      26.915   2.500  52.353  1.00  0.00     0.042 A 
ATOM      2  C   UNL     1      27.062   1.132  52.076  1.00  0.00     0.014 A 
ATOM      3  C   UNL     1      27.827   0.302  52.897  1.00  0.00     0.006 A 
ATOM      4  C   UNL     1      28.539   0.812  53.971  1.00  0.00    -0.027 A 
ATOM      5  C   UNL     1      29.376  -0.103  54.853  1.00  0.00     0.046 C 
ATOM      6  C   UNL     1      28.480   2.188  54.190  1.00  0.00     0.045 A 
ATOM      7  C   UNL     1      27.687   3.000  53.369  1.00  0.00     0.040 A 
ENDROOT
BRANCH   1   8
ATOM      8  C   UNL     1      26.233   3.470  51.474  1.00  0.00     0.255 C 
ATOM      9  O   UNL     1      26.431   3.326  50.292  1.00  0.00    -0.269 OA
ATOM     10  N   UNL     1      25.289   4.228  52.050  1.00  0.00    -0.322 N 
ATOM     11  H   UNL     1      25.160   4.123  53.066  1.00  0.00     0.170 HD
BRANCH  10  12
ATOM     12  C   UNL     1      24.469   5.143  51.401  1.00  0.00     0.044 A 
ATOM     13  C   UNL     1      23.778   6.144  52.127  1.00  0.00     0.052 A 
ATOM     14  C   UNL     1      24.210   5.020  50.018  1.00  0.00     0.039 A 
ATOM     15  C   UNL     1      22.959   7.075  51.482  1.00  0.00     0.049 A 
ATOM     16  C   UNL     1      23.393   5.982  49.359  1.00  0.00     0.060 A 
ATOM     17  C   UNL     1      22.755   6.972  50.110  1.00  0.00     0.039 A 
BRANCH  15  18
ATOM     18  N   UNL     1      22.304   8.096  52.188  1.00  0.00    -0.306 N 
ATOM     19  C   UNL     1      21.470   7.996  53.299  1.00  0.00     0.116 A 
ATOM     20  C   UNL     1      22.276   9.396  51.872  1.00  0.00     0.204 A 
ATOM     21  C   UNL     1      20.998   9.230  53.585  1.00  0.00     0.056 A 
ATOM     22  N   UNL     1      21.540  10.096  52.701  1.00  0.00    -0.242 NA
ATOM     23  C   UNL     1      20.076   9.634  54.709  1.00  0.00     0.068 C 
ENDBRANCH  15  18
BRANCH  16  24
ATOM     24  C   UNL     1      23.184   5.863  47.884  1.00  0.00     0.416 C 
ATOM     25  F   UNL     1      22.265   4.951  47.511  1.00  0.00    -0.166 F 
ATOM     26  F   UNL     1      22.679   6.984  47.382  1.00  0.00    -0.166 F 
ATOM     27  F   UNL     1      24.300   5.466  47.239  1.00  0.00    -0.166 F 
ENDBRANCH  16  24
ENDBRANCH  10  12
ENDBRANCH   1   8
BRANCH   6  28
ATOM     28  N   UNL     1      29.057   2.702  55.358  1.00  0.00    -0.324 N 
ATOM     29  H   UNL     1      28.476   2.876  56.191  1.00  0.00     0.170 HD
BRANCH  28  30
ATOM     30  C   UNL     1      30.425   2.977  55.386  1.00  0.00     0.227 A 
ATOM     31  N   UNL     1      31.079   3.877  56.109  1.00  0.00    -0.221 NA
ATOM     32  N   UNL     1      31.022   2.194  54.450  1.00  0.00    -0.213 NA
ATOM     33  C   UNL     1      32.408   3.966  55.908  1.00  0.00     0.117 A 
ATOM     34  C   UNL     1      32.338   2.341  54.264  1.00  0.00     0.077 A 
ATOM     35  C   UNL     1      33.051   3.230  54.988  1.00  0.00     0.049 A 
BRANCH  34  36
ATOM     36  C   UNL     1      32.949   1.436  53.255  1.00  0.00     0.019 A 
ATOM     37  C   UNL     1      32.300   0.267  52.827  1.00  0.00     0.013 A 
ATOM     38  C   UNL     1      34.215   1.725  52.708  1.00  0.00     0.121 A 
ATOM     39  C   UNL     1      32.930  -0.553  51.900  1.00  0.00     0.021 A 
ATOM     40  N   UNL     1      34.830   0.934  51.820  1.00  0.00    -0.264 NA
ATOM     41  C   UNL     1      34.176  -0.164  51.409  1.00  0.00     0.111 A 
ENDBRANCH  34  36
ENDBRANCH  28  30
ENDBRANCH   6  28
TORSDOF 7
ENDMDL
MODEL 8
REMARK VINA RESULT:   -11.205      3.673     12.047
REMARK INTER + INTRA:         -14.511
REMARK INTER:                 -13.293
REMARK INTRA:                  -1.218
REMARK CONF_INDEPENDENT:        2.088
REMARK UNBOUND:                -1.218
REMARK SMILES Cc1cn(-c2cc(NC(=O)c3ccc(C)c(Nc4nccc(-c5cccnc5)n4)c3)cc(C(F)(F)F)c2)cn1
REMARK SMILES IDX 11 1 12 2 13 3 14 4 15 5 16 6 30 7 9 8 10 9 8 10 7 12 6 13
REMARK SMILES IDX 31 14 5 15 32 16 37 17 4 18 3 19 38 20 2 21 39 22 1 23 33 24
REMARK SMILES IDX 34 25 35 26 36 27 17 28 18 30 19 31 29 32 20 33 22 34 21 35
REMARK SMILES IDX 23 36 24 37 28 38 25 39 27 40 26 41
REMARK H PARENT 8 11 17 29
ROOT
ATOM      1  C   UNL     1      26.094   3.410  51.596  1.00  0.00     0.042 A 
ATOM      2  C   UNL     1      25.472   3.794  50.399  1.00  0.00     0.014 A 
ATOM      3  C   UNL     1      24.245   4.459  50.398  1.00  0.00     0.006 A 
ATOM      4  C   UNL     1      23.553   4.692  51.576  1.00  0.00    -0.027 A 
ATOM      5  C   UNL     1      22.212   5.411  51.560  1.00  0.00     0.046 C 
ATOM      6  C   UNL     1      24.118   4.221  52.760  1.00  0.00     0.045 A 
ATOM      7  C   UNL     1      25.362   3.578  52.742  1.00  0.00     0.040 A 
ENDROOT
BRANCH   1   8
ATOM      8  C   UNL     1      27.322   2.596  51.684  1.00  0.00     0.255 C 
ATOM      9  O   UNL     1      28.184   2.870  50.885  1.00  0.00    -0.269 OA
ATOM     10  N   UNL     1      27.448   1.831  52.779  1.00  0.00    -0.322 N 
ATOM     11  H   UNL     1      26.654   1.820  53.435  1.00  0.00     0.170 HD
BRANCH  10  12
ATOM     12  C   UNL     1      28.550   1.052  53.109  1.00  0.00     0.044 A 
ATOM     13  C   UNL     1      29.836   1.362  52.603  1.00  0.00     0.052 A 
ATOM     14  C   UNL     1      28.392  -0.134  53.858  1.00  0.00     0.039 A 
ATOM     15  C   UNL     1      30.953   0.590  52.937  1.00  0.00     0.049 A 
ATOM     16  C   UNL     1      29.534  -0.907  54.215  1.00  0.00     0.060 A 
ATOM     17  C   UNL     1      30.789  -0.548  53.719  1.00  0.00     0.039 A 
BRANCH  15  18
ATOM     18  N   UNL     1      32.238   0.913  52.475  1.00  0.00    -0.306 N 
ATOM     19  C   UNL     1      32.880   0.497  51.310  1.00  0.00     0.116 A 
ATOM     20  C   UNL     1      33.165   1.631  53.121  1.00  0.00     0.204 A 
ATOM     21  C   UNL     1      34.138   0.988  51.323  1.00  0.00     0.056 A 
ATOM     22  N   UNL     1      34.286   1.722  52.448  1.00  0.00    -0.242 NA
ATOM     23  C   UNL     1      35.209   0.826  50.272  1.00  0.00     0.068 C 
ENDBRANCH  15  18
BRANCH  16  24
ATOM     24  C   UNL     1      29.345  -2.125  55.059  1.00  0.00     0.416 C 
ATOM     25  F   UNL     1      28.724  -3.152  54.446  1.00  0.00    -0.166 F 
ATOM     26  F   UNL     1      30.513  -2.665  55.385  1.00  0.00    -0.166 F 
ATOM     27  F   UNL     1      28.569  -1.887  56.137  1.00  0.00    -0.166 F 
ENDBRANCH  16  24
ENDBRANCH  10  12
ENDBRANCH   1   8
BRANCH   6  28
ATOM     28  N   UNL     1      23.521   4.585  53.974  1.00  0.00    -0.324 N 
ATOM     29  H   UNL     1      22.914   3.920  54.475  1.00  0.00     0.170 HD
BRANCH  28  30
ATOM     30  C   UNL     1      23.756   5.857  54.501  1.00  0.00     0.227 A 
ATOM     31  N   UNL     1      24.757   6.268  55.269  1.00  0.00    -0.221 NA
ATOM     32  N   UNL     1      22.707   6.646  54.154  1.00  0.00    -0.213 NA
ATOM     33  C   UNL     1      24.719   7.550  55.678  1.00  0.00     0.117 A 
ATOM     34  C   UNL     1      22.698   7.904  54.611  1.00  0.00     0.077 A 
ATOM     35  C   UNL     1      23.702   8.374  55.382  1.00  0.00     0.049 A 
BRANCH  34  36
ATOM     36  C   UNL     1      21.547   8.737  54.176  1.00  0.00     0.019 A 
ATOM     37  C   UNL     1      20.222   8.298  54.329  1.00  0.00     0.013 A 
ATOM     38  C   UNL     1      21.759   9.995  53.578  1.00  0.00     0.121 A 
ATOM     39  C   UNL     1      19.186   9.108  53.880  1.00  0.00     0.021 A 
ATOM     40  N   UNL     1      20.766  10.776  53.136  1.00  0.00    -0.264 NA
ATOM     41  C   UNL     1      19.507  10.343  53.318  1.00  0.00     0.111 A 
ENDBRANCH  34  36
ENDBRANCH  28  30
ENDBRANCH   6  28
TORSDOF 7
ENDMDL
MODEL 9
REMARK VINA RESULT:   -11.048      3.855     11.672
REMARK INTER + INTRA:         -14.239
REMARK INTER:                 -13.136
REMARK INTRA:                  -1.103
REMARK CONF_INDEPENDENT:        2.088
REMARK UNBOUND:                -1.103
REMARK SMILES Cc1cn(-c2cc(NC(=O)c3ccc(C)c(Nc4nccc(-c5cccnc5)n4)c3)cc(C(F)(F)F)c2)cn1
REMARK SMILES IDX 11 1 12 2 13 3 14 4 15 5 16 6 30 7 9 8 10 9 8 10 7 12 6 13
REMARK SMILES IDX 31 14 5 15 32 16 37 17 4 18 3 19 38 20 2 21 39 22 1 23 33 24
REMARK SMILES IDX 34 25 35 26 36 27 17 28 18 30 19 31 29 32 20 33 22 34 21 35
REMARK SMILES IDX 23 36 24 37 28 38 25 39 27 40 26 41
REMARK H PARENT 8 11 17 29
ROOT
ATOM      1  C   UNL     1      25.739   3.474  51.826  1.00  0.00     0.042 A 
ATOM      2  C   UNL     1      24.866   3.263  50.748  1.00  0.00     0.014 A 
ATOM      3  C   UNL     1      23.530   3.662  50.806  1.00  0.00     0.006 A 
ATOM      4  C   UNL     1      22.993   4.207  51.961  1.00  0.00    -0.027 A 
ATOM      5  C   UNL     1      21.532   4.631  52.012  1.00  0.00     0.046 C 
ATOM      6  C   UNL     1      23.829   4.324  53.070  1.00  0.00     0.045 A 
ATOM      7  C   UNL     1      25.173   3.941  52.984  1.00  0.00     0.040 A 
ENDROOT
BRANCH   1   8
ATOM      8  C   UNL     1      27.126   2.972  51.899  1.00  0.00     0.255 C 
ATOM      9  O   UNL     1      27.705   2.895  50.843  1.00  0.00    -0.269 OA
ATOM     10  N   UNL     1      27.665   2.901  53.125  1.00  0.00    -0.322 N 
ATOM     11  H   UNL     1      27.054   3.136  53.919  1.00  0.00     0.170 HD
BRANCH  10  12
ATOM     12  C   UNL     1      28.973   2.539  53.421  1.00  0.00     0.044 A 
ATOM     13  C   UNL     1      29.647   1.556  52.655  1.00  0.00     0.052 A 
ATOM     14  C   UNL     1      29.620   3.055  54.566  1.00  0.00     0.039 A 
ATOM     15  C   UNL     1      30.966   1.192  52.939  1.00  0.00     0.049 A 
ATOM     16  C   UNL     1      30.971   2.700  54.840  1.00  0.00     0.060 A 
ATOM     17  C   UNL     1      31.608   1.748  54.041  1.00  0.00     0.039 A 
BRANCH  15  18
ATOM     18  N   UNL     1      31.656   0.250  52.161  1.00  0.00    -0.306 N 
ATOM     19  C   UNL     1      31.325  -0.261  50.907  1.00  0.00     0.116 A 
ATOM     20  C   UNL     1      32.751  -0.434  52.515  1.00  0.00     0.204 A 
ATOM     21  C   UNL     1      32.234  -1.207  50.584  1.00  0.00     0.056 A 
ATOM     22  N   UNL     1      33.136  -1.277  51.588  1.00  0.00    -0.242 NA
ATOM     23  C   UNL     1      32.309  -2.028  49.319  1.00  0.00     0.068 C 
ENDBRANCH  15  18
BRANCH  16  24
ATOM     24  C   UNL     1      31.651   3.308  56.024  1.00  0.00     0.416 C 
ATOM     25  F   UNL     1      31.035   4.390  56.541  1.00  0.00    -0.166 F 
ATOM     26  F   UNL     1      31.650   2.472  57.056  1.00  0.00    -0.166 F 
ATOM     27  F   UNL     1      32.886   3.762  55.729  1.00  0.00    -0.166 F 
ENDBRANCH  16  24
ENDBRANCH  10  12
ENDBRANCH   1   8
BRANCH   6  28
ATOM     28  N   UNL     1      23.356   5.018  54.191  1.00  0.00    -0.324 N 
ATOM     29  H   UNL     1      22.376   4.917  54.489  1.00  0.00     0.170 HD
BRANCH  28  30
ATOM     30  C   UNL     1      24.225   5.848  54.902  1.00  0.00     0.227 A 
ATOM     31  N   UNL     1      25.478   6.179  54.618  1.00  0.00    -0.221 NA
ATOM     32  N   UNL     1      23.590   6.233  56.039  1.00  0.00    -0.213 NA
ATOM     33  C   UNL     1      26.112   6.970  55.505  1.00  0.00     0.117 A 
ATOM     34  C   UNL     1      24.270   6.992  56.905  1.00  0.00     0.077 A 
ATOM     35  C   UNL     1      25.542   7.370  56.653  1.00  0.00     0.049 A 
BRANCH  34  36
ATOM     36  C   UNL     1      23.520   7.416  58.116  1.00  0.00     0.019 A 
ATOM     37  C   UNL     1      24.178   7.749  59.310  1.00  0.00     0.013 A 
ATOM     38  C   UNL     1      22.112   7.479  58.099  1.00  0.00     0.121 A 
ATOM     39  C   UNL     1      23.423   8.114  60.418  1.00  0.00     0.021 A 
ATOM     40  N   UNL     1      21.379   7.822  59.166  1.00  0.00    -0.264 NA
ATOM     41  C   UNL     1      22.036   8.160  60.288  1.00  0.00     0.111 A 
ENDBRANCH  34  36
ENDBRANCH  28  30
ENDBRANCH   6  28
TORSDOF 7
ENDMDL
MODEL 10
REMARK VINA RESULT:   -10.988      3.564     12.202
REMARK INTER + INTRA:         -13.981
REMARK INTER:                 -13.076
REMARK INTRA:                  -0.905
REMARK CONF_INDEPENDENT:        2.088
REMARK UNBOUND:                -0.905
REMARK SMILES Cc1cn(-c2cc(NC(=O)c3ccc(C)c(Nc4nccc(-c5cccnc5)n4)c3)cc(C(F)(F)F)c2)cn1
REMARK SMILES IDX 11 1 12 2 13 3 14 4 15 5 16 6 30 7 9 8 10 9 8 10 7 12 6 13
REMARK SMILES IDX 31 14 5 15 32 16 37 17 4 18 3 19 38 20 2 21 39 22 1 23 33 24
REMARK SMILES IDX 34 25 35 26 36 27 17 28 18 30 19 31 29 32 20 33 22 34 21 35
REMARK SMILES IDX 23 36 24 37 28 38 25 39 27 40 26 41
REMARK H PARENT 8 11 17 29
ROOT
ATOM      1  C   UNL     1      25.953   3.861  51.949  1.00  0.00     0.042 A 
ATOM      2  C   UNL     1      25.052   4.059  50.892  1.00  0.00     0.014 A 
ATOM      3  C   UNL     1      24.012   4.985  50.987  1.00  0.00     0.006 A 
ATOM      4  C   UNL     1      23.778   5.685  52.160  1.00  0.00    -0.027 A 
ATOM      5  C   UNL     1      22.635   6.686  52.252  1.00  0.00     0.046 C 
ATOM      6  C   UNL     1      24.607   5.417  53.248  1.00  0.00     0.045 A 
ATOM      7  C   UNL     1      25.660   4.503  53.125  1.00  0.00     0.040 A 
ENDROOT
BRANCH   1   8
ATOM      8  C   UNL     1      26.998   2.820  51.983  1.00  0.00     0.255 C 
ATOM      9  O   UNL     1      27.599   2.654  50.949  1.00  0.00    -0.269 OA
ATOM     10  N   UNL     1      27.334   2.358  53.197  1.00  0.00    -0.322 N 
ATOM     11  H   UNL     1      26.795   2.714  53.998  1.00  0.00     0.170 HD
BRANCH  10  12
ATOM     12  C   UNL     1      28.343   1.442  53.471  1.00  0.00     0.044 A 
ATOM     13  C   UNL     1      29.654   1.633  52.969  1.00  0.00     0.052 A 
ATOM     14  C   UNL     1      28.055   0.241  54.154  1.00  0.00     0.039 A 
ATOM     15  C   UNL     1      30.677   0.723  53.248  1.00  0.00     0.049 A 
ATOM     16  C   UNL     1      29.104  -0.674  54.456  1.00  0.00     0.060 A 
ATOM     17  C   UNL     1      30.390  -0.432  53.967  1.00  0.00     0.039 A 
BRANCH  15  18
ATOM     18  N   UNL     1      31.989   0.924  52.791  1.00  0.00    -0.306 N 
ATOM     19  C   UNL     1      32.657   0.295  51.743  1.00  0.00     0.116 A 
ATOM     20  C   UNL     1      32.916   1.717  53.341  1.00  0.00     0.204 A 
ATOM     21  C   UNL     1      33.930   0.745  51.722  1.00  0.00     0.056 A 
ATOM     22  N   UNL     1      34.063   1.659  52.710  1.00  0.00    -0.242 NA
ATOM     23  C   UNL     1      35.033   0.373  50.761  1.00  0.00     0.068 C 
ENDBRANCH  15  18
BRANCH  16  24
ATOM     24  C   UNL     1      28.782  -1.909  55.233  1.00  0.00     0.416 C 
ATOM     25  F   UNL     1      27.911  -2.747  54.637  1.00  0.00    -0.166 F 
ATOM     26  F   UNL     1      29.855  -2.680  55.370  1.00  0.00    -0.166 F 
ATOM     27  F   UNL     1      28.193  -1.633  56.415  1.00  0.00    -0.166 F 
ENDBRANCH  16  24
ENDBRANCH  10  12
ENDBRANCH   1   8
BRANCH   6  28
ATOM     28  N   UNL     1      24.494   6.225  54.387  1.00  0.00    -0.324 N 
ATOM     29  H   UNL     1      25.282   6.817  54.684  1.00  0.00     0.170 HD
BRANCH  28  30
ATOM     30  C   UNL     1      23.303   6.222  55.117  1.00  0.00     0.227 A 
ATOM     31  N   UNL     1      22.172   5.576  54.861  1.00  0.00    -0.221 NA
ATOM     32  N   UNL     1      23.452   7.088  56.151  1.00  0.00    -0.213 NA
ATOM     33  C   UNL     1      21.151   5.784  55.714  1.00  0.00     0.117 A 
ATOM     34  C   UNL     1      22.399   7.287  56.953  1.00  0.00     0.077 A 
ATOM     35  C   UNL     1      21.232   6.640  56.745  1.00  0.00     0.049 A 
BRANCH  34  36
ATOM     36  C   UNL     1      22.623   8.217  58.090  1.00  0.00     0.019 A 
ATOM     37  C   UNL     1      22.292   7.861  59.407  1.00  0.00     0.013 A 
ATOM     38  C   UNL     1      23.165   9.499  57.869  1.00  0.00     0.121 A 
ATOM     39  C   UNL     1      22.501   8.781  60.427  1.00  0.00     0.021 A 
ATOM     40  N   UNL     1      23.361  10.392  58.847  1.00  0.00    -0.264 NA
ATOM     41  C   UNL     1      23.059  10.016  60.101  1.00  0.00     0.111 A 
ENDBRANCH  34  36
ENDBRANCH  28  30
ENDBRANCH   6  28
TORSDOF 7
ENDMDL
MODEL 11
REMARK VINA RESULT:   -10.968      4.506      7.902
REMARK INTER + INTRA:         -14.114
REMARK INTER:                 -13.056
REMARK INTRA:                  -1.058
REMARK CONF_INDEPENDENT:        2.088
REMARK UNBOUND:                -1.058
REMARK SMILES Cc1cn(-c2cc(NC(=O)c3ccc(C)c(Nc4nccc(-c5cccnc5)n4)c3)cc(C(F)(F)F)c2)cn1
REMARK SMILES IDX 11 1 12 2 13 3 14 4 15 5 16 6 30 7 9 8 10 9 8 10 7 12 6 13
REMARK SMILES IDX 31 14 5 15 32 16 37 17 4 18 3 19 38 20 2 21 39 22 1 23 33 24
REMARK SMILES IDX 34 25 35 26 36 27 17 28 18 30 19 31 29 32 20 33 22 34 21 35
REMARK SMILES IDX 23 36 24 37 28 38 25 39 27 40 26 41
REMARK H PARENT 8 11 17 29
ROOT
ATOM      1  C   UNL     1      33.924  -0.718  50.874  1.00  0.00     0.042 A 
ATOM      2  C   UNL     1      33.928  -1.937  50.180  1.00  0.00     0.014 A 
ATOM      3  C   UNL     1      34.921  -2.239  49.247  1.00  0.00     0.006 A 
ATOM      4  C   UNL     1      35.894  -1.313  48.909  1.00  0.00    -0.027 A 
ATOM      5  C   UNL     1      36.967  -1.653  47.884  1.00  0.00     0.046 C 
ATOM      6  C   UNL     1      35.835  -0.061  49.519  1.00  0.00     0.045 A 
ATOM      7  C   UNL     1      34.845   0.213  50.471  1.00  0.00     0.040 A 
ENDROOT
BRANCH   1   8
ATOM      8  C   UNL     1      32.848  -0.266  51.779  1.00  0.00     0.255 C 
ATOM      9  O   UNL     1      33.097   0.720  52.428  1.00  0.00    -0.269 OA
ATOM     10  N   UNL     1      31.646  -0.835  51.599  1.00  0.00    -0.322 N 
ATOM     11  H   UNL     1      31.584  -1.583  50.895  1.00  0.00     0.170 HD
BRANCH  10  12
ATOM     12  C   UNL     1      30.478  -0.505  52.276  1.00  0.00     0.044 A 
ATOM     13  C   UNL     1      29.707   0.619  51.890  1.00  0.00     0.052 A 
ATOM     14  C   UNL     1      30.099  -1.211  53.438  1.00  0.00     0.039 A 
ATOM     15  C   UNL     1      28.525   0.952  52.558  1.00  0.00     0.049 A 
ATOM     16  C   UNL     1      28.884  -0.884  54.104  1.00  0.00     0.060 A 
ATOM     17  C   UNL     1      28.137   0.214  53.672  1.00  0.00     0.039 A 
BRANCH  15  18
ATOM     18  N   UNL     1      27.732   2.038  52.158  1.00  0.00    -0.306 N 
ATOM     19  C   UNL     1      26.805   2.766  52.901  1.00  0.00     0.116 A 
ATOM     20  C   UNL     1      27.636   2.548  50.924  1.00  0.00     0.204 A 
ATOM     21  C   UNL     1      26.218   3.664  52.080  1.00  0.00     0.056 A 
ATOM     22  N   UNL     1      26.775   3.534  50.856  1.00  0.00    -0.242 NA
ATOM     23  C   UNL     1      25.165   4.689  52.426  1.00  0.00     0.068 C 
ENDBRANCH  15  18
BRANCH  16  24
ATOM     24  C   UNL     1      28.475  -1.687  55.297  1.00  0.00     0.416 C 
ATOM     25  F   UNL     1      27.553  -2.639  55.054  1.00  0.00    -0.166 F 
ATOM     26  F   UNL     1      29.493  -2.402  55.761  1.00  0.00    -0.166 F 
ATOM     27  F   UNL     1      27.900  -0.929  56.253  1.00  0.00    -0.166 F 
ENDBRANCH  16  24
ENDBRANCH  10  12
ENDBRANCH   1   8
BRANCH   6  28
ATOM     28  N   UNL     1      36.896   0.830  49.317  1.00  0.00    -0.324 N 
ATOM     29  H   UNL     1      36.712   1.797  49.014  1.00  0.00     0.170 HD
BRANCH  28  30
ATOM     30  C   UNL     1      38.206   0.397  49.530  1.00  0.00     0.227 A 
ATOM     31  N   UNL     1      38.667  -0.443  50.448  1.00  0.00    -0.221 NA
ATOM     32  N   UNL     1      39.006   1.060  48.655  1.00  0.00    -0.213 NA
ATOM     33  C   UNL     1      39.996  -0.657  50.461  1.00  0.00     0.117 A 
ATOM     34  C   UNL     1      40.324   0.839  48.727  1.00  0.00     0.077 A 
ATOM     35  C   UNL     1      40.839  -0.021  49.632  1.00  0.00     0.049 A 
BRANCH  34  36
ATOM     36  C   UNL     1      41.152   1.561  47.726  1.00  0.00     0.019 A 
ATOM     37  C   UNL     1      42.058   2.564  48.107  1.00  0.00     0.013 A 
ATOM     38  C   UNL     1      41.036   1.264  46.354  1.00  0.00     0.121 A 
ATOM     39  C   UNL     1      42.787   3.222  47.125  1.00  0.00     0.021 A 
ATOM     40  N   UNL     1      41.730   1.901  45.403  1.00  0.00    -0.264 NA
ATOM     41  C   UNL     1      42.608   2.838  45.797  1.00  0.00     0.111 A 
ENDBRANCH  34  36
ENDBRANCH  28  30
ENDBRANCH   6  28
TORSDOF 7
ENDMDL
MODEL 12
REMARK VINA RESULT:   -10.938      3.557     12.084
REMARK INTER + INTRA:         -14.334
REMARK INTER:                 -13.026
REMARK INTRA:                  -1.309
REMARK CONF_INDEPENDENT:        2.088
REMARK UNBOUND:                -1.309
REMARK SMILES Cc1cn(-c2cc(NC(=O)c3ccc(C)c(Nc4nccc(-c5cccnc5)n4)c3)cc(C(F)(F)F)c2)cn1
REMARK SMILES IDX 11 1 12 2 13 3 14 4 15 5 16 6 30 7 9 8 10 9 8 10 7 12 6 13
REMARK SMILES IDX 31 14 5 15 32 16 37 17 4 18 3 19 38 20 2 21 39 22 1 23 33 24
REMARK SMILES IDX 34 25 35 26 36 27 17 28 18 30 19 31 29 32 20 33 22 34 21 35
REMARK SMILES IDX 23 36 24 37 28 38 25 39 27 40 26 41
REMARK H PARENT 8 11 17 29
ROOT
ATOM      1  C   UNL     1      25.574   3.714  51.901  1.00  0.00     0.042 A 
ATOM      2  C   UNL     1      24.838   3.935  50.728  1.00  0.00     0.014 A 
ATOM      3  C   UNL     1      23.517   4.384  50.772  1.00  0.00     0.006 A 
ATOM      4  C   UNL     1      22.854   4.548  51.978  1.00  0.00    -0.027 A 
ATOM      5  C   UNL     1      21.411   5.031  52.011  1.00  0.00     0.046 C 
ATOM      6  C   UNL     1      23.548   4.231  53.144  1.00  0.00     0.045 A 
ATOM      7  C   UNL     1      24.881   3.806  53.080  1.00  0.00     0.040 A 
ENDROOT
BRANCH   1   8
ATOM      8  C   UNL     1      26.926   3.123  51.950  1.00  0.00     0.255 C 
ATOM      9  O   UNL     1      27.435   2.904  50.877  1.00  0.00    -0.269 OA
ATOM     10  N   UNL     1      27.532   3.129  53.147  1.00  0.00    -0.322 N 
ATOM     11  H   UNL     1      26.985   3.481  53.945  1.00  0.00     0.170 HD
BRANCH  10  12
ATOM     12  C   UNL     1      28.828   2.703  53.407  1.00  0.00     0.044 A 
ATOM     13  C   UNL     1      29.431   1.688  52.623  1.00  0.00     0.052 A 
ATOM     14  C   UNL     1      29.529   3.185  54.534  1.00  0.00     0.039 A 
ATOM     15  C   UNL     1      30.738   1.260  52.871  1.00  0.00     0.049 A 
ATOM     16  C   UNL     1      30.869   2.763  54.772  1.00  0.00     0.060 A 
ATOM     17  C   UNL     1      31.436   1.783  53.955  1.00  0.00     0.039 A 
BRANCH  15  18
ATOM     18  N   UNL     1      31.360   0.287  52.075  1.00  0.00    -0.306 N 
ATOM     19  C   UNL     1      32.717   0.002  51.939  1.00  0.00     0.116 A 
ATOM     20  C   UNL     1      30.765  -0.526  51.193  1.00  0.00     0.204 A 
ATOM     21  C   UNL     1      32.856  -0.957  50.997  1.00  0.00     0.056 A 
ATOM     22  N   UNL     1      31.620  -1.297  50.567  1.00  0.00    -0.242 NA
ATOM     23  C   UNL     1      34.129  -1.607  50.514  1.00  0.00     0.068 C 
ENDBRANCH  15  18
BRANCH  16  24
ATOM     24  C   UNL     1      31.608   3.335  55.937  1.00  0.00     0.416 C 
ATOM     25  F   UNL     1      31.027   4.407  56.511  1.00  0.00    -0.166 F 
ATOM     26  F   UNL     1      31.650   2.472  56.946  1.00  0.00    -0.166 F 
ATOM     27  F   UNL     1      32.832   3.788  55.596  1.00  0.00    -0.166 F 
ENDBRANCH  16  24
ENDBRANCH  10  12
ENDBRANCH   1   8
BRANCH   6  28
ATOM     28  N   UNL     1      22.958   4.542  54.376  1.00  0.00    -0.324 N 
ATOM     29  H   UNL     1      22.404   3.835  54.880  1.00  0.00     0.170 HD
BRANCH  28  30
ATOM     30  C   UNL     1      23.127   5.819  54.915  1.00  0.00     0.227 A 
ATOM     31  N   UNL     1      23.991   6.226  55.836  1.00  0.00    -0.221 NA
ATOM     32  N   UNL     1      22.168   6.621  54.384  1.00  0.00    -0.213 NA
ATOM     33  C   UNL     1      23.912   7.516  56.213  1.00  0.00     0.117 A 
ATOM     34  C   UNL     1      22.108   7.886  54.814  1.00  0.00     0.077 A 
ATOM     35  C   UNL     1      22.977   8.353  55.736  1.00  0.00     0.049 A 
BRANCH  34  36
ATOM     36  C   UNL     1      21.064   8.732  54.177  1.00  0.00     0.019 A 
ATOM     37  C   UNL     1      19.700   8.415  54.275  1.00  0.00     0.013 A 
ATOM     38  C   UNL     1      21.424   9.876  53.438  1.00  0.00     0.121 A 
ATOM     39  C   UNL     1      18.771   9.228  53.638  1.00  0.00     0.021 A 
ATOM     40  N   UNL     1      20.533  10.659  52.815  1.00  0.00    -0.264 NA
ATOM     41  C   UNL     1      19.233  10.347  52.947  1.00  0.00     0.111 A 
ENDBRANCH  34  36
ENDBRANCH  28  30
ENDBRANCH   6  28
TORSDOF 7
ENDMDL
MODEL 13
REMARK VINA RESULT:   -10.894      8.348     15.201
REMARK INTER + INTRA:         -14.288
REMARK INTER:                 -12.982
REMARK INTRA:                  -1.305
REMARK CONF_INDEPENDENT:        2.088
REMARK UNBOUND:                -1.305
REMARK SMILES Cc1cn(-c2cc(NC(=O)c3ccc(C)c(Nc4nccc(-c5cccnc5)n4)c3)cc(C(F)(F)F)c2)cn1
REMARK SMILES IDX 11 1 12 2 13 3 14 4 15 5 16 6 30 7 9 8 10 9 8 10 7 12 6 13
REMARK SMILES IDX 31 14 5 15 32 16 37 17 4 18 3 19 38 20 2 21 39 22 1 23 33 24
REMARK SMILES IDX 34 25 35 26 36 27 17 28 18 30 19 31 29 32 20 33 22 34 21 35
REMARK SMILES IDX 23 36 24 37 28 38 25 39 27 40 26 41
REMARK H PARENT 8 11 17 29
ROOT
ATOM      1  C   UNL     1      35.997  -1.669  49.272  1.00  0.00     0.042 A 
ATOM      2  C   UNL     1      35.214  -2.828  49.160  1.00  0.00     0.014 A 
ATOM      3  C   UNL     1      33.840  -2.804  49.406  1.00  0.00     0.006 A 
ATOM      4  C   UNL     1      33.210  -1.653  49.851  1.00  0.00    -0.027 A 
ATOM      5  C   UNL     1      31.712  -1.643  50.123  1.00  0.00     0.046 C 
ATOM      6  C   UNL     1      34.001  -0.525  50.064  1.00  0.00     0.045 A 
ATOM      7  C   UNL     1      35.373  -0.563  49.787  1.00  0.00     0.040 A 
ENDROOT
BRANCH   1   8
ATOM      8  C   UNL     1      37.468  -1.631  49.155  1.00  0.00     0.255 C 
ATOM      9  O   UNL     1      38.054  -1.211  50.122  1.00  0.00    -0.269 OA
ATOM     10  N   UNL     1      37.996  -2.288  48.111  1.00  0.00    -0.322 N 
ATOM     11  H   UNL     1      37.336  -2.709  47.442  1.00  0.00     0.170 HD
BRANCH  10  12
ATOM     12  C   UNL     1      39.350  -2.453  47.852  1.00  0.00     0.044 A 
ATOM     13  C   UNL     1      39.913  -2.027  46.623  1.00  0.00     0.052 A 
ATOM     14  C   UNL     1      40.174  -3.158  48.757  1.00  0.00     0.039 A 
ATOM     15  C   UNL     1      41.276  -2.180  46.357  1.00  0.00     0.049 A 
ATOM     16  C   UNL     1      41.567  -3.293  48.494  1.00  0.00     0.060 A 
ATOM     17  C   UNL     1      42.086  -2.832  47.282  1.00  0.00     0.039 A 
BRANCH  15  18
ATOM     18  N   UNL     1      41.850  -1.724  45.161  1.00  0.00    -0.306 N 
ATOM     19  C   UNL     1      42.150  -0.418  44.776  1.00  0.00     0.116 A 
ATOM     20  C   UNL     1      42.150  -2.460  44.084  1.00  0.00     0.204 A 
ATOM     21  C   UNL     1      42.611  -0.448  43.507  1.00  0.00     0.056 A 
ATOM     22  N   UNL     1      42.635  -1.738  43.103  1.00  0.00    -0.242 NA
ATOM     23  C   UNL     1      43.083   0.711  42.662  1.00  0.00     0.068 C 
ENDBRANCH  15  18
BRANCH  16  24
ATOM     24  C   UNL     1      42.426  -3.992  49.497  1.00  0.00     0.416 C 
ATOM     25  F   UNL     1      41.977  -3.939  50.767  1.00  0.00    -0.166 F 
ATOM     26  F   UNL     1      42.457  -5.300  49.271  1.00  0.00    -0.166 F 
ATOM     27  F   UNL     1      43.660  -3.453  49.579  1.00  0.00    -0.166 F 
ENDBRANCH  16  24
ENDBRANCH  10  12
ENDBRANCH   1   8
BRANCH   6  28
ATOM     28  N   UNL     1      33.366   0.689  50.355  1.00  0.00    -0.324 N 
ATOM     29  H   UNL     1      33.033   1.297  49.593  1.00  0.00     0.170 HD
BRANCH  28  30
ATOM     30  C   UNL     1      33.187   1.069  51.687  1.00  0.00     0.227 A 
ATOM     31  N   UNL     1      33.885   1.940  52.405  1.00  0.00    -0.221 NA
ATOM     32  N   UNL     1      32.180   0.315  52.198  1.00  0.00    -0.213 NA
ATOM     33  C   UNL     1      33.525   2.087  53.694  1.00  0.00     0.117 A 
ATOM     34  C   UNL     1      31.880   0.474  53.493  1.00  0.00     0.077 A 
ATOM     35  C   UNL     1      32.549   1.361  54.261  1.00  0.00     0.049 A 
BRANCH  34  36
ATOM     36  C   UNL     1      30.748  -0.348  53.995  1.00  0.00     0.019 A 
ATOM     37  C   UNL     1      29.669   0.229  54.684  1.00  0.00     0.013 A 
ATOM     38  C   UNL     1      30.738  -1.743  53.804  1.00  0.00     0.121 A 
ATOM     39  C   UNL     1      28.651  -0.591  55.153  1.00  0.00     0.021 A 
ATOM     40  N   UNL     1      29.763  -2.540  54.261  1.00  0.00    -0.264 NA
ATOM     41  C   UNL     1      28.731  -1.959  54.894  1.00  0.00     0.111 A 
ENDBRANCH  34  36
ENDBRANCH  28  30
ENDBRANCH   6  28
TORSDOF 7
ENDMDL
MODEL 14
REMARK VINA RESULT:   -10.813      2.727      5.037
REMARK INTER + INTRA:         -14.487
REMARK INTER:                 -12.901
REMARK INTRA:                  -1.585
REMARK CONF_INDEPENDENT:        2.088
REMARK UNBOUND:                -1.585
REMARK SMILES Cc1cn(-c2cc(NC(=O)c3ccc(C)c(Nc4nccc(-c5cccnc5)n4)c3)cc(C(F)(F)F)c2)cn1
REMARK SMILES IDX 11 1 12 2 13 3 14 4 15 5 16 6 30 7 9 8 10 9 8 10 7 12 6 13
REMARK SMILES IDX 31 14 5 15 32 16 37 17 4 18 3 19 38 20 2 21 39 22 1 23 33 24
REMARK SMILES IDX 34 25 35 26 36 27 17 28 18 30 19 31 29 32 20 33 22 34 21 35
REMARK SMILES IDX 23 36 24 37 28 38 25 39 27 40 26 41
REMARK H PARENT 8 11 17 29
ROOT
ATOM      1  C   UNL     1      27.968   1.233  53.199  1.00  0.00     0.042 A 
ATOM      2  C   UNL     1      27.636   0.521  54.361  1.00  0.00     0.014 A 
ATOM      3  C   UNL     1      28.354  -0.610  54.751  1.00  0.00     0.006 A 
ATOM      4  C   UNL     1      29.371  -1.123  53.961  1.00  0.00    -0.027 A 
ATOM      5  C   UNL     1      30.140  -2.362  54.394  1.00  0.00     0.046 C 
ATOM      6  C   UNL     1      29.636  -0.480  52.753  1.00  0.00     0.045 A 
ATOM      7  C   UNL     1      28.921   0.668  52.392  1.00  0.00     0.040 A 
ENDROOT
BRANCH   1   8
ATOM      8  C   UNL     1      27.188   2.359  52.647  1.00  0.00     0.255 C 
ATOM      9  O   UNL     1      27.331   2.559  51.466  1.00  0.00    -0.269 OA
ATOM     10  N   UNL     1      26.233   2.863  53.443  1.00  0.00    -0.322 N 
ATOM     11  H   UNL     1      26.163   2.474  54.394  1.00  0.00     0.170 HD
BRANCH  10  12
ATOM     12  C   UNL     1      25.330   3.862  53.103  1.00  0.00     0.044 A 
ATOM     13  C   UNL     1      25.011   4.122  51.747  1.00  0.00     0.052 A 
ATOM     14  C   UNL     1      24.802   4.720  54.091  1.00  0.00     0.039 A 
ATOM     15  C   UNL     1      24.096   5.118  51.394  1.00  0.00     0.049 A 
ATOM     16  C   UNL     1      23.853   5.720  53.733  1.00  0.00     0.060 A 
ATOM     17  C   UNL     1      23.544   5.923  52.386  1.00  0.00     0.039 A 
BRANCH  15  18
ATOM     18  N   UNL     1      23.742   5.355  50.058  1.00  0.00    -0.306 N 
ATOM     19  C   UNL     1      22.473   5.515  49.503  1.00  0.00     0.116 A 
ATOM     20  C   UNL     1      24.566   5.386  49.004  1.00  0.00     0.204 A 
ATOM     21  C   UNL     1      22.609   5.636  48.165  1.00  0.00     0.056 A 
ATOM     22  N   UNL     1      23.929   5.585  47.876  1.00  0.00    -0.242 NA
ATOM     23  C   UNL     1      21.525   5.847  47.136  1.00  0.00     0.068 C 
ENDBRANCH  15  18
BRANCH  16  24
ATOM     24  C   UNL     1      23.265   6.575  54.808  1.00  0.00     0.416 C 
ATOM     25  F   UNL     1      22.776   5.902  55.868  1.00  0.00    -0.166 F 
ATOM     26  F   UNL     1      24.193   7.339  55.372  1.00  0.00    -0.166 F 
ATOM     27  F   UNL     1      22.205   7.288  54.373  1.00  0.00    -0.166 F 
ENDBRANCH  16  24
ENDBRANCH  10  12
ENDBRANCH   1   8
BRANCH   6  28
ATOM     28  N   UNL     1      30.760  -0.880  52.018  1.00  0.00    -0.324 N 
ATOM     29  H   UNL     1      30.704  -1.686  51.379  1.00  0.00     0.170 HD
BRANCH  28  30
ATOM     30  C   UNL     1      31.958  -0.177  52.159  1.00  0.00     0.227 A 
ATOM     31  N   UNL     1      33.114  -0.368  51.535  1.00  0.00    -0.221 NA
ATOM     32  N   UNL     1      31.784   0.740  53.145  1.00  0.00    -0.213 NA
ATOM     33  C   UNL     1      34.135   0.433  51.894  1.00  0.00     0.117 A 
ATOM     34  C   UNL     1      32.837   1.490  53.489  1.00  0.00     0.077 A 
ATOM     35  C   UNL     1      34.029   1.347  52.871  1.00  0.00     0.049 A 
BRANCH  34  36
ATOM     36  C   UNL     1      32.586   2.503  54.548  1.00  0.00     0.019 A 
ATOM     37  C   UNL     1      33.446   3.596  54.739  1.00  0.00     0.013 A 
ATOM     38  C   UNL     1      31.474   2.381  55.405  1.00  0.00     0.121 A 
ATOM     39  C   UNL     1      33.175   4.497  55.761  1.00  0.00     0.021 A 
ATOM     40  N   UNL     1      31.212   3.242  56.397  1.00  0.00    -0.264 NA
ATOM     41  C   UNL     1      32.037   4.292  56.541  1.00  0.00     0.111 A 
ENDBRANCH  34  36
ENDBRANCH  28  30
ENDBRANCH   6  28
TORSDOF 7
ENDMDL
MODEL 15
REMARK VINA RESULT:   -10.791      2.035      3.091
REMARK INTER + INTRA:         -14.087
REMARK INTER:                 -12.879
REMARK INTRA:                  -1.207
REMARK CONF_INDEPENDENT:        2.088
REMARK UNBOUND:                -1.207
REMARK SMILES Cc1cn(-c2cc(NC(=O)c3ccc(C)c(Nc4nccc(-c5cccnc5)n4)c3)cc(C(F)(F)F)c2)cn1
REMARK SMILES IDX 11 1 12 2 13 3 14 4 15 5 16 6 30 7 9 8 10 9 8 10 7 12 6 13
REMARK SMILES IDX 31 14 5 15 32 16 37 17 4 18 3 19 38 20 2 21 39 22 1 23 33 24
REMARK SMILES IDX 34 25 35 26 36 27 17 28 18 30 19 31 29 32 20 33 22 34 21 35
REMARK SMILES IDX 23 36 24 37 28 38 25 39 27 40 26 41
REMARK H PARENT 8 11 17 29
ROOT
ATOM      1  C   UNL     1      26.711   2.653  52.575  1.00  0.00     0.042 A 
ATOM      2  C   UNL     1      26.876   1.623  51.637  1.00  0.00     0.014 A 
ATOM      3  C   UNL     1      27.817   0.610  51.827  1.00  0.00     0.006 A 
ATOM      4  C   UNL     1      28.683   0.627  52.909  1.00  0.00    -0.027 A 
ATOM      5  C   UNL     1      29.709  -0.480  53.100  1.00  0.00     0.046 C 
ATOM      6  C   UNL     1      28.593   1.704  53.790  1.00  0.00     0.045 A 
ATOM      7  C   UNL     1      27.625   2.697  53.595  1.00  0.00     0.040 A 
ENDROOT
BRANCH   1   8
ATOM      8  C   UNL     1      25.834   3.826  52.393  1.00  0.00     0.255 C 
ATOM      9  O   UNL     1      25.477   4.036  51.260  1.00  0.00    -0.269 OA
ATOM     10  N   UNL     1      25.334   4.370  53.513  1.00  0.00    -0.322 N 
ATOM     11  H   UNL     1      25.651   3.971  54.408  1.00  0.00     0.170 HD
BRANCH  10  12
ATOM     12  C   UNL     1      24.428   5.421  53.576  1.00  0.00     0.044 A 
ATOM     13  C   UNL     1      23.686   5.672  54.756  1.00  0.00     0.052 A 
ATOM     14  C   UNL     1      24.138   6.188  52.426  1.00  0.00     0.039 A 
ATOM     15  C   UNL     1      22.780   6.733  54.832  1.00  0.00     0.049 A 
ATOM     16  C   UNL     1      23.231   7.283  52.512  1.00  0.00     0.060 A 
ATOM     17  C   UNL     1      22.543   7.514  53.705  1.00  0.00     0.039 A 
BRANCH  15  18
ATOM     18  N   UNL     1      22.071   7.016  56.010  1.00  0.00    -0.306 N 
ATOM     19  C   UNL     1      22.536   7.577  57.198  1.00  0.00     0.116 A 
ATOM     20  C   UNL     1      20.794   6.713  56.268  1.00  0.00     0.204 A 
ATOM     21  C   UNL     1      21.520   7.582  58.088  1.00  0.00     0.056 A 
ATOM     22  N   UNL     1      20.429   7.067  57.477  1.00  0.00    -0.242 NA
ATOM     23  C   UNL     1      21.527   8.105  59.504  1.00  0.00     0.068 C 
ENDBRANCH  15  18
BRANCH  16  24
ATOM     24  C   UNL     1      22.988   8.115  51.295  1.00  0.00     0.416 C 
ATOM     25  F   UNL     1      24.070   8.767  50.826  1.00  0.00    -0.166 F 
ATOM     26  F   UNL     1      22.653   7.357  50.258  1.00  0.00    -0.166 F 
ATOM     27  F   UNL     1      22.099   9.104  51.519  1.00  0.00    -0.166 F 
ENDBRANCH  16  24
ENDBRANCH  10  12
ENDBRANCH   1   8
BRANCH   6  28
ATOM     28  N   UNL     1      29.342   1.661  54.973  1.00  0.00    -0.324 N 
ATOM     29  H   UNL     1      28.948   1.229  55.821  1.00  0.00     0.170 HD
BRANCH  28  30
ATOM     30  C   UNL     1      30.627   2.207  54.993  1.00  0.00     0.227 A 
ATOM     31  N   UNL     1      31.084   3.234  55.699  1.00  0.00    -0.221 NA
ATOM     32  N   UNL     1      31.371   1.543  54.072  1.00  0.00    -0.213 NA
ATOM     33  C   UNL     1      32.368   3.585  55.494  1.00  0.00     0.117 A 
ATOM     34  C   UNL     1      32.632   1.949  53.880  1.00  0.00     0.077 A 
ATOM     35  C   UNL     1      33.148   2.978  54.587  1.00  0.00     0.049 A 
BRANCH  34  36
ATOM     36  C   UNL     1      33.415   1.169  52.887  1.00  0.00     0.019 A 
ATOM     37  C   UNL     1      32.821   0.653  51.724  1.00  0.00     0.013 A 
ATOM     38  C   UNL     1      34.783   0.910  53.098  1.00  0.00     0.121 A 
ATOM     39  C   UNL     1      33.596  -0.091  50.843  1.00  0.00     0.021 A 
ATOM     40  N   UNL     1      35.533   0.187  52.257  1.00  0.00    -0.264 NA
ATOM     41  C   UNL     1      34.946  -0.272  51.140  1.00  0.00     0.111 A 
ENDBRANCH  34  36
ENDBRANCH  28  30
ENDBRANCH   6  28
TORSDOF 7
ENDMDL
MODEL 16
REMARK VINA RESULT:   -10.788      4.730     13.548
REMARK INTER + INTRA:         -14.228
REMARK INTER:                 -12.876
REMARK INTRA:                  -1.352
REMARK CONF_INDEPENDENT:        2.088
REMARK UNBOUND:                -1.352
REMARK SMILES Cc1cn(-c2cc(NC(=O)c3ccc(C)c(Nc4nccc(-c5cccnc5)n4)c3)cc(C(F)(F)F)c2)cn1
REMARK SMILES IDX 11 1 12 2 13 3 14 4 15 5 16 6 30 7 9 8 10 9 8 10 7 12 6 13
REMARK SMILES IDX 31 14 5 15 32 16 37 17 4 18 3 19 38 20 2 21 39 22 1 23 33 24
REMARK SMILES IDX 34 25 35 26 36 27 17 28 18 30 19 31 29 32 20 33 22 34 21 35
REMARK SMILES IDX 23 36 24 37 28 38 25 39 27 40 26 41
REMARK H PARENT 8 11 17 29
ROOT
ATOM      1  C   UNL     1      21.078   7.330  54.274  1.00  0.00     0.042 A 
ATOM      2  C   UNL     1      20.944   7.479  55.663  1.00  0.00     0.014 A 
ATOM      3  C   UNL     1      20.214   8.533  56.214  1.00  0.00     0.006 A 
ATOM      4  C   UNL     1      19.662   9.521  55.414  1.00  0.00    -0.027 A 
ATOM      5  C   UNL     1      18.874  10.668  56.029  1.00  0.00     0.046 C 
ATOM      6  C   UNL     1      19.880   9.435  54.040  1.00  0.00     0.045 A 
ATOM      7  C   UNL     1      20.594   8.356  53.504  1.00  0.00     0.040 A 
ENDROOT
BRANCH   1   8
ATOM      8  C   UNL     1      21.933   6.325  53.612  1.00  0.00     0.255 C 
ATOM      9  O   UNL     1      21.879   5.213  54.077  1.00  0.00    -0.269 OA
ATOM     10  N   UNL     1      22.469   6.686  52.436  1.00  0.00    -0.322 N 
ATOM     11  H   UNL     1      22.298   7.652  52.122  1.00  0.00     0.170 HD
BRANCH  10  12
ATOM     12  C   UNL     1      23.232   5.877  51.605  1.00  0.00     0.044 A 
ATOM     13  C   UNL     1      24.298   5.102  52.124  1.00  0.00     0.052 A 
ATOM     14  C   UNL     1      23.041   5.902  50.206  1.00  0.00     0.039 A 
ATOM     15  C   UNL     1      25.066   4.277  51.297  1.00  0.00     0.049 A 
ATOM     16  C   UNL     1      23.809   5.044  49.368  1.00  0.00     0.060 A 
ATOM     17  C   UNL     1      24.831   4.272  49.926  1.00  0.00     0.039 A 
BRANCH  15  18
ATOM     18  N   UNL     1      26.096   3.473  51.807  1.00  0.00    -0.306 N 
ATOM     19  C   UNL     1      26.430   3.216  53.136  1.00  0.00     0.116 A 
ATOM     20  C   UNL     1      27.047   2.847  51.104  1.00  0.00     0.204 A 
ATOM     21  C   UNL     1      27.547   2.456  53.151  1.00  0.00     0.056 A 
ATOM     22  N   UNL     1      27.898   2.209  51.870  1.00  0.00    -0.242 NA
ATOM     23  C   UNL     1      28.280   1.907  54.351  1.00  0.00     0.068 C 
ENDBRANCH  15  18
BRANCH  16  24
ATOM     24  C   UNL     1      23.544   5.046  47.897  1.00  0.00     0.416 C 
ATOM     25  F   UNL     1      22.249   4.905  47.552  1.00  0.00    -0.166 F 
ATOM     26  F   UNL     1      23.846   6.222  47.360  1.00  0.00    -0.166 F 
ATOM     27  F   UNL     1      24.150   4.019  47.266  1.00  0.00    -0.166 F 
ENDBRANCH  16  24
ENDBRANCH  10  12
ENDBRANCH   1   8
BRANCH   6  28
ATOM     28  N   UNL     1      19.199  10.326  53.200  1.00  0.00    -0.324 N 
ATOM     29  H   UNL     1      19.721  10.924  52.545  1.00  0.00     0.170 HD
BRANCH  28  30
ATOM     30  C   UNL     1      17.806  10.397  53.259  1.00  0.00     0.227 A 
ATOM     31  N   UNL     1      17.025  11.470  53.237  1.00  0.00    -0.221 NA
ATOM     32  N   UNL     1      17.336   9.134  53.430  1.00  0.00    -0.213 NA
ATOM     33  C   UNL     1      15.700  11.257  53.354  1.00  0.00     0.117 A 
ATOM     34  C   UNL     1      16.015   8.976  53.574  1.00  0.00     0.077 A 
ATOM     35  C   UNL     1      15.178  10.035  53.540  1.00  0.00     0.049 A 
BRANCH  34  36
ATOM     36  C   UNL     1      15.548   7.573  53.722  1.00  0.00     0.019 A 
ATOM     37  C   UNL     1      14.774   7.168  54.821  1.00  0.00     0.013 A 
ATOM     38  C   UNL     1      15.888   6.601  52.761  1.00  0.00     0.121 A 
ATOM     39  C   UNL     1      14.388   5.837  54.920  1.00  0.00     0.021 A 
ATOM     40  N   UNL     1      15.525   5.315  52.855  1.00  0.00    -0.264 NA
ATOM     41  C   UNL     1      14.764   4.961  53.903  1.00  0.00     0.111 A 
ENDBRANCH  34  36
ENDBRANCH  28  30
ENDBRANCH   6  28
TORSDOF 7
ENDMDL
MODEL 17
REMARK VINA RESULT:   -10.746      4.053     11.241
REMARK INTER + INTRA:         -14.084
REMARK INTER:                 -12.834
REMARK INTRA:                  -1.250
REMARK CONF_INDEPENDENT:        2.088
REMARK UNBOUND:                -1.250
REMARK SMILES Cc1cn(-c2cc(NC(=O)c3ccc(C)c(Nc4nccc(-c5cccnc5)n4)c3)cc(C(F)(F)F)c2)cn1
REMARK SMILES IDX 11 1 12 2 13 3 14 4 15 5 16 6 30 7 9 8 10 9 8 10 7 12 6 13
REMARK SMILES IDX 31 14 5 15 32 16 37 17 4 18 3 19 38 20 2 21 39 22 1 23 33 24
REMARK SMILES IDX 34 25 35 26 36 27 17 28 18 30 19 31 29 32 20 33 22 34 21 35
REMARK SMILES IDX 23 36 24 37 28 38 25 39 27 40 26 41
REMARK H PARENT 8 11 17 29
ROOT
ATOM      1  C   UNL     1      25.605   3.728  51.911  1.00  0.00     0.042 A 
ATOM      2  C   UNL     1      24.866   3.917  50.734  1.00  0.00     0.014 A 
ATOM      3  C   UNL     1      23.546   4.370  50.769  1.00  0.00     0.006 A 
ATOM      4  C   UNL     1      22.888   4.572  51.971  1.00  0.00    -0.027 A 
ATOM      5  C   UNL     1      21.446   5.060  51.994  1.00  0.00     0.046 C 
ATOM      6  C   UNL     1      23.583   4.287  53.144  1.00  0.00     0.045 A 
ATOM      7  C   UNL     1      24.915   3.857  53.088  1.00  0.00     0.040 A 
ENDROOT
BRANCH   1   8
ATOM      8  C   UNL     1      26.955   3.134  51.973  1.00  0.00     0.255 C 
ATOM      9  O   UNL     1      27.482   2.933  50.907  1.00  0.00    -0.269 OA
ATOM     10  N   UNL     1      27.539   3.118  53.181  1.00  0.00    -0.322 N 
ATOM     11  H   UNL     1      26.979   3.457  53.976  1.00  0.00     0.170 HD
BRANCH  10  12
ATOM     12  C   UNL     1      28.830   2.686  53.457  1.00  0.00     0.044 A 
ATOM     13  C   UNL     1      29.441   1.674  52.675  1.00  0.00     0.052 A 
ATOM     14  C   UNL     1      29.517   3.158  54.597  1.00  0.00     0.039 A 
ATOM     15  C   UNL     1      30.743   1.240  52.939  1.00  0.00     0.049 A 
ATOM     16  C   UNL     1      30.851   2.730  54.851  1.00  0.00     0.060 A 
ATOM     17  C   UNL     1      31.427   1.753  54.036  1.00  0.00     0.039 A 
BRANCH  15  18
ATOM     18  N   UNL     1      31.372   0.270  52.145  1.00  0.00    -0.306 N 
ATOM     19  C   UNL     1      32.708   0.189  51.754  1.00  0.00     0.116 A 
ATOM     20  C   UNL     1      30.784  -0.751  51.510  1.00  0.00     0.204 A 
ATOM     21  C   UNL     1      32.841  -0.867  50.922  1.00  0.00     0.056 A 
ATOM     22  N   UNL     1      31.633  -1.461  50.808  1.00  0.00    -0.242 NA
ATOM     23  C   UNL     1      34.098  -1.370  50.255  1.00  0.00     0.068 C 
ENDBRANCH  15  18
BRANCH  16  24
ATOM     24  C   UNL     1      31.577   3.292  56.030  1.00  0.00     0.416 C 
ATOM     25  F   UNL     1      31.650   2.472  57.097  1.00  0.00    -0.166 F 
ATOM     26  F   UNL     1      32.859   3.494  55.750  1.00  0.00    -0.166 F 
ATOM     27  F   UNL     1      30.977   4.395  56.524  1.00  0.00    -0.166 F 
ENDBRANCH  16  24
ENDBRANCH  10  12
ENDBRANCH   1   8
BRANCH   6  28
ATOM     28  N   UNL     1      22.998   4.636  54.368  1.00  0.00    -0.324 N 
ATOM     29  H   UNL     1      22.452   3.943  54.899  1.00  0.00     0.170 HD
BRANCH  28  30
ATOM     30  C   UNL     1      23.161   5.932  54.862  1.00  0.00     0.227 A 
ATOM     31  N   UNL     1      22.759   7.081  54.334  1.00  0.00    -0.221 NA
ATOM     32  N   UNL     1      23.904   5.850  55.996  1.00  0.00    -0.213 NA
ATOM     33  C   UNL     1      23.088   8.203  55.002  1.00  0.00     0.117 A 
ATOM     34  C   UNL     1      24.233   6.994  56.607  1.00  0.00     0.077 A 
ATOM     35  C   UNL     1      23.833   8.187  56.119  1.00  0.00     0.049 A 
BRANCH  34  36
ATOM     36  C   UNL     1      25.016   6.848  57.862  1.00  0.00     0.019 A 
ATOM     37  C   UNL     1      24.400   6.892  59.123  1.00  0.00     0.013 A 
ATOM     38  C   UNL     1      26.414   6.676  57.818  1.00  0.00     0.121 A 
ATOM     39  C   UNL     1      25.186   6.776  60.263  1.00  0.00     0.021 A 
ATOM     40  N   UNL     1      27.177   6.572  58.913  1.00  0.00    -0.264 NA
ATOM     41  C   UNL     1      26.559   6.592  60.105  1.00  0.00     0.111 A 
ENDBRANCH  34  36
ENDBRANCH  28  30
ENDBRANCH   6  28
TORSDOF 7
ENDMDL
MODEL 18
REMARK VINA RESULT:   -10.620      3.705     11.762
REMARK INTER + INTRA:         -13.820
REMARK INTER:                 -12.708
REMARK INTRA:                  -1.112
REMARK CONF_INDEPENDENT:        2.088
REMARK UNBOUND:                -1.112
REMARK SMILES Cc1cn(-c2cc(NC(=O)c3ccc(C)c(Nc4nccc(-c5cccnc5)n4)c3)cc(C(F)(F)F)c2)cn1
REMARK SMILES IDX 11 1 12 2 13 3 14 4 15 5 16 6 30 7 9 8 10 9 8 10 7 12 6 13
REMARK SMILES IDX 31 14 5 15 32 16 37 17 4 18 3 19 38 20 2 21 39 22 1 23 33 24
REMARK SMILES IDX 34 25 35 26 36 27 17 28 18 30 19 31 29 32 20 33 22 34 21 35
REMARK SMILES IDX 23 36 24 37 28 38 25 39 27 40 26 41
REMARK H PARENT 8 11 17 29
ROOT
ATOM      1  C   UNL     1      26.083   3.622  51.630  1.00  0.00     0.042 A 
ATOM      2  C   UNL     1      25.366   3.742  50.430  1.00  0.00     0.014 A 
ATOM      3  C   UNL     1      24.116   4.362  50.390  1.00  0.00     0.006 A 
ATOM      4  C   UNL     1      23.497   4.807  51.546  1.00  0.00    -0.027 A 
ATOM      5  C   UNL     1      22.131   5.474  51.488  1.00  0.00     0.046 C 
ATOM      6  C   UNL     1      24.159   4.597  52.755  1.00  0.00     0.045 A 
ATOM      7  C   UNL     1      25.424   3.996  52.772  1.00  0.00     0.040 A 
ENDROOT
BRANCH   1   8
ATOM      8  C   UNL     1      27.346   2.873  51.786  1.00  0.00     0.255 C 
ATOM      9  O   UNL     1      28.354   3.520  51.636  1.00  0.00    -0.269 OA
ATOM     10  N   UNL     1      27.245   1.645  52.316  1.00  0.00    -0.322 N 
ATOM     11  H   UNL     1      26.295   1.296  52.509  1.00  0.00     0.170 HD
BRANCH  10  12
ATOM     12  C   UNL     1      28.303   0.801  52.627  1.00  0.00     0.044 A 
ATOM     13  C   UNL     1      29.482   0.792  51.842  1.00  0.00     0.052 A 
ATOM     14  C   UNL     1      28.180  -0.153  53.661  1.00  0.00     0.039 A 
ATOM     15  C   UNL     1      30.556  -0.046  52.153  1.00  0.00     0.049 A 
ATOM     16  C   UNL     1      29.283  -0.991  53.991  1.00  0.00     0.060 A 
ATOM     17  C   UNL     1      30.439  -0.946  53.208  1.00  0.00     0.039 A 
BRANCH  15  18
ATOM     18  N   UNL     1      31.744  -0.032  51.407  1.00  0.00    -0.306 N 
ATOM     19  C   UNL     1      32.921   0.674  51.648  1.00  0.00     0.116 A 
ATOM     20  C   UNL     1      31.960  -0.639  50.234  1.00  0.00     0.204 A 
ATOM     21  C   UNL     1      33.767   0.448  50.619  1.00  0.00     0.056 A 
ATOM     22  N   UNL     1      33.159  -0.402  49.761  1.00  0.00    -0.242 NA
ATOM     23  C   UNL     1      35.169   0.977  50.435  1.00  0.00     0.068 C 
ENDBRANCH  15  18
BRANCH  16  24
ATOM     24  C   UNL     1      29.146  -1.950  55.129  1.00  0.00     0.416 C 
ATOM     25  F   UNL     1      30.298  -2.252  55.761  1.00  0.00    -0.166 F 
ATOM     26  F   UNL     1      28.423  -1.424  56.111  1.00  0.00    -0.166 F 
ATOM     27  F   UNL     1      28.681  -3.152  54.733  1.00  0.00    -0.166 F 
ENDBRANCH  16  24
ENDBRANCH  10  12
ENDBRANCH   1   8
BRANCH   6  28
ATOM     28  N   UNL     1      23.632   5.181  53.914  1.00  0.00    -0.324 N 
ATOM     29  H   UNL     1      22.632   5.081  54.138  1.00  0.00     0.170 HD
BRANCH  28  30
ATOM     30  C   UNL     1      24.475   5.901  54.764  1.00  0.00     0.227 A 
ATOM     31  N   UNL     1      25.771   6.152  54.635  1.00  0.00    -0.221 NA
ATOM     32  N   UNL     1      23.748   6.266  55.852  1.00  0.00    -0.213 NA
ATOM     33  C   UNL     1      26.357   6.840  55.633  1.00  0.00     0.117 A 
ATOM     34  C   UNL     1      24.381   6.920  56.832  1.00  0.00     0.077 A 
ATOM     35  C   UNL     1      25.696   7.215  56.739  1.00  0.00     0.049 A 
BRANCH  34  36
ATOM     36  C   UNL     1      23.535   7.328  57.984  1.00  0.00     0.019 A 
ATOM     37  C   UNL     1      24.099   7.754  59.197  1.00  0.00     0.013 A 
ATOM     38  C   UNL     1      22.130   7.282  57.890  1.00  0.00     0.121 A 
ATOM     39  C   UNL     1      23.258   8.099  60.248  1.00  0.00     0.021 A 
ATOM     40  N   UNL     1      21.315   7.605  58.902  1.00  0.00    -0.264 NA
ATOM     41  C   UNL     1      21.880   8.034  60.043  1.00  0.00     0.111 A 
ENDBRANCH  34  36
ENDBRANCH  28  30
ENDBRANCH   6  28
TORSDOF 7
ENDMDL
MODEL 19
REMARK VINA RESULT:   -10.611      8.225     14.921
REMARK INTER + INTRA:         -14.049
REMARK INTER:                 -12.699
REMARK INTRA:                  -1.350
REMARK CONF_INDEPENDENT:        2.088
REMARK UNBOUND:                -1.350
REMARK SMILES Cc1cn(-c2cc(NC(=O)c3ccc(C)c(Nc4nccc(-c5cccnc5)n4)c3)cc(C(F)(F)F)c2)cn1
REMARK SMILES IDX 11 1 12 2 13 3 14 4 15 5 16 6 30 7 9 8 10 9 8 10 7 12 6 13
REMARK SMILES IDX 31 14 5 15 32 16 37 17 4 18 3 19 38 20 2 21 39 22 1 23 33 24
REMARK SMILES IDX 34 25 35 26 36 27 17 28 18 30 19 31 29 32 20 33 22 34 21 35
REMARK SMILES IDX 23 36 24 37 28 38 25 39 27 40 26 41
REMARK H PARENT 8 11 17 29
ROOT
ATOM      1  C   UNL     1      36.131  -1.622  49.542  1.00  0.00     0.042 A 
ATOM      2  C   UNL     1      35.381  -2.782  49.302  1.00  0.00     0.014 A 
ATOM      3  C   UNL     1      33.987  -2.777  49.386  1.00  0.00     0.006 A 
ATOM      4  C   UNL     1      33.296  -1.646  49.791  1.00  0.00    -0.027 A 
ATOM      5  C   UNL     1      31.777  -1.657  49.886  1.00  0.00     0.046 C 
ATOM      6  C   UNL     1      34.044  -0.520  50.132  1.00  0.00     0.045 A 
ATOM      7  C   UNL     1      35.439  -0.538  50.017  1.00  0.00     0.040 A 
ENDROOT
BRANCH   1   8
ATOM      8  C   UNL     1      37.605  -1.568  49.600  1.00  0.00     0.255 C 
ATOM      9  O   UNL     1      38.065  -0.792  50.403  1.00  0.00    -0.269 OA
ATOM     10  N   UNL     1      38.259  -2.545  48.953  1.00  0.00    -0.322 N 
ATOM     11  H   UNL     1      37.688  -3.212  48.415  1.00  0.00     0.170 HD
BRANCH  10  12
ATOM     12  C   UNL     1      39.635  -2.738  48.942  1.00  0.00     0.044 A 
ATOM     13  C   UNL     1      40.391  -2.648  50.137  1.00  0.00     0.052 A 
ATOM     14  C   UNL     1      40.326  -2.908  47.723  1.00  0.00     0.039 A 
ATOM     15  C   UNL     1      41.774  -2.851  50.138  1.00  0.00     0.049 A 
ATOM     16  C   UNL     1      41.732  -3.136  47.728  1.00  0.00     0.060 A 
ATOM     17  C   UNL     1      42.435  -3.069  48.933  1.00  0.00     0.039 A 
BRANCH  15  18
ATOM     18  N   UNL     1      42.526  -2.806  51.321  1.00  0.00    -0.306 N 
ATOM     19  C   UNL     1      42.595  -3.743  52.351  1.00  0.00     0.116 A 
ATOM     20  C   UNL     1      43.277  -1.787  51.755  1.00  0.00     0.204 A 
ATOM     21  C   UNL     1      43.379  -3.239  53.328  1.00  0.00     0.056 A 
ATOM     22  N   UNL     1      43.823  -2.028  52.922  1.00  0.00    -0.242 NA
ATOM     23  C   UNL     1      43.769  -3.888  54.634  1.00  0.00     0.068 C 
ENDBRANCH  15  18
BRANCH  16  24
ATOM     24  C   UNL     1      42.429  -3.373  46.428  1.00  0.00     0.416 C 
ATOM     25  F   UNL     1      42.333  -4.629  45.951  1.00  0.00    -0.166 F 
ATOM     26  F   UNL     1      41.872  -2.665  45.452  1.00  0.00    -0.166 F 
ATOM     27  F   UNL     1      43.760  -3.171  46.516  1.00  0.00    -0.166 F 
ENDBRANCH  16  24
ENDBRANCH  10  12
ENDBRANCH   1   8
BRANCH   6  28
ATOM     28  N   UNL     1      33.365   0.679  50.386  1.00  0.00    -0.324 N 
ATOM     29  H   UNL     1      33.021   1.257  49.606  1.00  0.00     0.170 HD
BRANCH  28  30
ATOM     30  C   UNL     1      33.157   1.084  51.706  1.00  0.00     0.227 A 
ATOM     31  N   UNL     1      33.828   1.980  52.417  1.00  0.00    -0.221 NA
ATOM     32  N   UNL     1      32.152   0.326  52.216  1.00  0.00    -0.213 NA
ATOM     33  C   UNL     1      33.443   2.150  53.696  1.00  0.00     0.117 A 
ATOM     34  C   UNL     1      31.826   0.508  53.501  1.00  0.00     0.077 A 
ATOM     35  C   UNL     1      32.468   1.420  54.261  1.00  0.00     0.049 A 
BRANCH  34  36
ATOM     36  C   UNL     1      30.698  -0.320  54.001  1.00  0.00     0.019 A 
ATOM     37  C   UNL     1      29.593   0.256  54.648  1.00  0.00     0.013 A 
ATOM     38  C   UNL     1      30.716  -1.721  53.849  1.00  0.00     0.121 A 
ATOM     39  C   UNL     1      28.579  -0.570  55.117  1.00  0.00     0.021 A 
ATOM     40  N   UNL     1      29.745  -2.522  54.306  1.00  0.00    -0.264 NA
ATOM     41  C   UNL     1      28.689  -1.943  54.899  1.00  0.00     0.111 A 
ENDBRANCH  34  36
ENDBRANCH  28  30
ENDBRANCH   6  28
TORSDOF 7
ENDMDL
MODEL 20
REMARK VINA RESULT:   -10.546      5.765     10.874
REMARK INTER + INTRA:         -13.782
REMARK INTER:                 -12.634
REMARK INTRA:                  -1.148
REMARK CONF_INDEPENDENT:        2.088
REMARK UNBOUND:                -1.148
REMARK SMILES Cc1cn(-c2cc(NC(=O)c3ccc(C)c(Nc4nccc(-c5cccnc5)n4)c3)cc(C(F)(F)F)c2)cn1
REMARK SMILES IDX 11 1 12 2 13 3 14 4 15 5 16 6 30 7 9 8 10 9 8 10 7 12 6 13
REMARK SMILES IDX 31 14 5 15 32 16 37 17 4 18 3 19 38 20 2 21 39 22 1 23 33 24
REMARK SMILES IDX 34 25 35 26 36 27 17 28 18 30 19 31 29 32 20 33 22 34 21 35
REMARK SMILES IDX 23 36 24 37 28 38 25 39 27 40 26 41
REMARK H PARENT 8 11 17 29
ROOT
ATOM      1  C   UNL     1      22.296   6.477  55.183  1.00  0.00     0.042 A 
ATOM      2  C   UNL     1      21.550   7.611  54.828  1.00  0.00     0.014 A 
ATOM      3  C   UNL     1      21.096   8.513  55.791  1.00  0.00     0.006 A 
ATOM      4  C   UNL     1      21.291   8.280  57.142  1.00  0.00    -0.027 A 
ATOM      5  C   UNL     1      20.783   9.269  58.182  1.00  0.00     0.046 C 
ATOM      6  C   UNL     1      21.941   7.103  57.508  1.00  0.00     0.045 A 
ATOM      7  C   UNL     1      22.412   6.223  56.525  1.00  0.00     0.040 A 
ENDROOT
BRANCH   1   8
ATOM      8  C   UNL     1      22.706   5.410  54.249  1.00  0.00     0.255 C 
ATOM      9  O   UNL     1      21.806   4.745  53.796  1.00  0.00    -0.269 OA
ATOM     10  N   UNL     1      23.975   5.457  53.817  1.00  0.00    -0.322 N 
ATOM     11  H   UNL     1      24.579   6.188  54.219  1.00  0.00     0.170 HD
BRANCH  10  12
ATOM     12  C   UNL     1      24.549   4.609  52.878  1.00  0.00     0.044 A 
ATOM     13  C   UNL     1      23.807   4.156  51.759  1.00  0.00     0.052 A 
ATOM     14  C   UNL     1      25.844   4.085  53.080  1.00  0.00     0.039 A 
ATOM     15  C   UNL     1      24.379   3.311  50.803  1.00  0.00     0.049 A 
ATOM     16  C   UNL     1      26.432   3.242  52.095  1.00  0.00     0.060 A 
ATOM     17  C   UNL     1      25.676   2.843  50.990  1.00  0.00     0.039 A 
BRANCH  15  18
ATOM     18  N   UNL     1      23.667   2.890  49.670  1.00  0.00    -0.306 N 
ATOM     19  C   UNL     1      22.846   1.774  49.516  1.00  0.00     0.116 A 
ATOM     20  C   UNL     1      23.706   3.439  48.450  1.00  0.00     0.204 A 
ATOM     21  C   UNL     1      22.441   1.723  48.228  1.00  0.00     0.056 A 
ATOM     22  N   UNL     1      22.963   2.791  47.585  1.00  0.00    -0.242 NA
ATOM     23  C   UNL     1      21.527   0.710  47.582  1.00  0.00     0.068 C 
ENDBRANCH  15  18
BRANCH  16  24
ATOM     24  C   UNL     1      27.827   2.750  52.306  1.00  0.00     0.416 C 
ATOM     25  F   UNL     1      28.724   3.168  51.390  1.00  0.00    -0.166 F 
ATOM     26  F   UNL     1      28.338   3.234  53.432  1.00  0.00    -0.166 F 
ATOM     27  F   UNL     1      27.913   1.405  52.237  1.00  0.00    -0.166 F 
ENDBRANCH  16  24
ENDBRANCH  10  12
ENDBRANCH   1   8
BRANCH   6  28
ATOM     28  N   UNL     1      22.293   6.925  58.852  1.00  0.00    -0.324 N 
ATOM     29  H   UNL     1      21.766   6.268  59.444  1.00  0.00     0.170 HD
BRANCH  28  30
ATOM     30  C   UNL     1      23.366   7.645  59.382  1.00  0.00     0.227 A 
ATOM     31  N   UNL     1      23.651   8.934  59.246  1.00  0.00    -0.221 NA
ATOM     32  N   UNL     1      24.169   6.767  60.035  1.00  0.00    -0.213 NA
ATOM     33  C   UNL     1      24.783   9.369  59.832  1.00  0.00     0.117 A 
ATOM     34  C   UNL     1      25.299   7.240  60.573  1.00  0.00     0.077 A 
ATOM     35  C   UNL     1      25.625   8.547  60.478  1.00  0.00     0.049 A 
BRANCH  34  36
ATOM     36  C   UNL     1      26.126   6.246  61.307  1.00  0.00     0.019 A 
ATOM     37  C   UNL     1      26.409   6.391  62.675  1.00  0.00     0.013 A 
ATOM     38  C   UNL     1      26.664   5.129  60.638  1.00  0.00     0.121 A 
ATOM     39  C   UNL     1      27.208   5.445  63.303  1.00  0.00     0.021 A 
ATOM     40  N   UNL     1      27.441   4.218  61.237  1.00  0.00    -0.264 NA
ATOM     41  C   UNL     1      27.675   4.368  62.551  1.00  0.00     0.111 A 
ENDBRANCH  34  36
ENDBRANCH  28  30
ENDBRANCH   6  28
TORSDOF 7
ENDMDL
