MODEL 1
REMARK VINA RESULT:   -14.411      0.000      0.000
REMARK INTER + INTRA:         -17.668
REMARK INTER:                 -16.499
REMARK INTRA:                  -1.169
REMARK CONF_INDEPENDENT:        2.088
REMARK UNBOUND:                -1.169
REMARK SMILES Cc1cn(-c2cc(NC(=O)c3ccc(C)c(Nc4nccc(-c5cccnc5)n4)c3)cc(C(F)(F)F)c2)cn1
REMARK SMILES IDX 11 1 12 2 13 3 14 4 15 5 16 6 30 7 9 8 10 9 8 10 7 12 6 13
REMARK SMILES IDX 31 14 5 15 32 16 37 17 4 18 3 19 38 20 2 21 39 22 1 23 33 24
REMARK SMILES IDX 34 25 35 26 36 27 17 28 18 30 19 31 29 32 20 33 22 34 21 35
REMARK SMILES IDX 23 36 24 37 28 38 25 39 27 40 26 41
REMARK H PARENT 8 11 17 29
ROOT
ATOM      1  C   UNL     1      27.967   1.715  53.068  1.00  0.00     0.042 A 
ATOM      2  C   UNL     1      27.663   1.167  54.323  1.00  0.00     0.014 A 
ATOM      3  C   UNL     1      28.372   0.077  54.832  1.00  0.00     0.006 A 
ATOM      4  C   UNL     1      29.349  -0.557  54.082  1.00  0.00    -0.027 A 
ATOM      5  C   UNL     1      30.109  -1.749  54.646  1.00  0.00     0.046 C 
ATOM      6  C   UNL     1      29.584  -0.082  52.793  1.00  0.00     0.045 A 
ATOM      7  C   UNL     1      28.880   1.028  52.310  1.00  0.00     0.040 A 
ENDROOT
BRANCH   1   8
ATOM      8  C   UNL     1      27.191   2.779  52.402  1.00  0.00     0.255 C 
ATOM      9  O   UNL     1      27.502   3.010  51.259  1.00  0.00    -0.269 OA
ATOM     10  N   UNL     1      26.081   3.188  53.036  1.00  0.00    -0.322 N 
ATOM     11  H   UNL     1      25.895   2.779  53.963  1.00  0.00     0.170 HD
BRANCH  10  12
ATOM     12  C   UNL     1      25.161   4.112  52.557  1.00  0.00     0.044 A 
ATOM     13  C   UNL     1      24.239   4.739  53.431  1.00  0.00     0.052 A 
ATOM     14  C   UNL     1      25.044   4.357  51.172  1.00  0.00     0.039 A 
ATOM     15  C   UNL     1      23.316   5.678  52.961  1.00  0.00     0.049 A 
ATOM     16  C   UNL     1      24.118   5.329  50.697  1.00  0.00     0.060 A 
ATOM     17  C   UNL     1      23.248   5.947  51.598  1.00  0.00     0.039 A 
BRANCH  15  18
ATOM     18  N   UNL     1      22.427   6.336  53.824  1.00  0.00    -0.306 N 
ATOM     19  C   UNL     1      22.123   6.047  55.153  1.00  0.00     0.116 A 
ATOM     20  C   UNL     1      21.604   7.343  53.511  1.00  0.00     0.204 A 
ATOM     21  C   UNL     1      21.149   6.892  55.556  1.00  0.00     0.056 A 
ATOM     22  N   UNL     1      20.861   7.716  54.524  1.00  0.00    -0.242 NA
ATOM     23  C   UNL     1      20.501   6.982  56.917  1.00  0.00     0.068 C 
ENDBRANCH  15  18
BRANCH  16  24
ATOM     24  C   UNL     1      24.057   5.612  49.231  1.00  0.00     0.416 C 
ATOM     25  F   UNL     1      24.898   6.574  48.801  1.00  0.00    -0.166 F 
ATOM     26  F   UNL     1      24.458   4.561  48.526  1.00  0.00    -0.166 F 
ATOM     27  F   UNL     1      22.845   6.060  48.845  1.00  0.00    -0.166 F 
ENDBRANCH  16  24
ENDBRANCH  10  12
ENDBRANCH   1   8
BRANCH   6  28
ATOM     28  N   UNL     1      30.673  -0.600  52.080  1.00  0.00    -0.324 N 
ATOM     29  H   UNL     1      30.544  -1.397  51.441  1.00  0.00     0.170 HD
BRANCH  28  30
ATOM     30  C   UNL     1      31.936  -0.026  52.243  1.00  0.00     0.227 A 
ATOM     31  N   UNL     1      32.318   0.919  53.092  1.00  0.00    -0.221 NA
ATOM     32  N   UNL     1      32.753  -0.554  51.295  1.00  0.00    -0.213 NA
ATOM     33  C   UNL     1      33.599   1.326  53.009  1.00  0.00     0.117 A 
ATOM     34  C   UNL     1      34.008  -0.095  51.230  1.00  0.00     0.077 A 
ATOM     35  C   UNL     1      34.450   0.854  52.085  1.00  0.00     0.049 A 
BRANCH  34  36
ATOM     36  C   UNL     1      34.872  -0.728  50.200  1.00  0.00     0.019 A 
ATOM     37  C   UNL     1      36.173  -0.265  49.944  1.00  0.00     0.013 A 
ATOM     38  C   UNL     1      34.396  -1.811  49.436  1.00  0.00     0.121 A 
ATOM     39  C   UNL     1      36.925  -0.880  48.952  1.00  0.00     0.021 A 
ATOM     40  N   UNL     1      35.114  -2.403  48.472  1.00  0.00    -0.264 NA
ATOM     41  C   UNL     1      36.364  -1.956  48.266  1.00  0.00     0.111 A 
ENDBRANCH  34  36
ENDBRANCH  28  30
ENDBRANCH   6  28
TORSDOF 7
ENDMDL
MODEL 2
REMARK VINA RESULT:   -13.179      2.284      3.579
REMARK INTER + INTRA:         -16.501
REMARK INTER:                 -15.267
REMARK INTRA:                  -1.233
REMARK CONF_INDEPENDENT:        2.088
REMARK UNBOUND:                -1.233
REMARK SMILES Cc1cn(-c2cc(NC(=O)c3ccc(C)c(Nc4nccc(-c5cccnc5)n4)c3)cc(C(F)(F)F)c2)cn1
REMARK SMILES IDX 11 1 12 2 13 3 14 4 15 5 16 6 30 7 9 8 10 9 8 10 7 12 6 13
REMARK SMILES IDX 31 14 5 15 32 16 37 17 4 18 3 19 38 20 2 21 39 22 1 23 33 24
REMARK SMILES IDX 34 25 35 26 36 27 17 28 18 30 19 31 29 32 20 33 22 34 21 35
REMARK SMILES IDX 23 36 24 37 28 38 25 39 27 40 26 41
REMARK H PARENT 8 11 17 29
ROOT
ATOM      1  C   UNL     1      28.240   1.570  53.439  1.00  0.00     0.042 A 
ATOM      2  C   UNL     1      27.951   0.928  54.653  1.00  0.00     0.014 A 
ATOM      3  C   UNL     1      28.627  -0.230  55.042  1.00  0.00     0.006 A 
ATOM      4  C   UNL     1      29.551  -0.837  54.207  1.00  0.00    -0.027 A 
ATOM      5  C   UNL     1      30.275  -2.103  54.641  1.00  0.00     0.046 C 
ATOM      6  C   UNL     1      29.767  -0.261  52.956  1.00  0.00     0.045 A 
ATOM      7  C   UNL     1      29.097   0.915  52.595  1.00  0.00     0.040 A 
ENDROOT
BRANCH   1   8
ATOM      8  C   UNL     1      27.490   2.719  52.894  1.00  0.00     0.255 C 
ATOM      9  O   UNL     1      27.870   3.123  51.822  1.00  0.00    -0.269 OA
ATOM     10  N   UNL     1      26.337   3.019  53.509  1.00  0.00    -0.322 N 
ATOM     11  H   UNL     1      26.099   2.473  54.349  1.00  0.00     0.170 HD
BRANCH  10  12
ATOM     12  C   UNL     1      25.435   4.000  53.118  1.00  0.00     0.044 A 
ATOM     13  C   UNL     1      25.085   4.165  51.755  1.00  0.00     0.052 A 
ATOM     14  C   UNL     1      24.939   4.934  54.055  1.00  0.00     0.039 A 
ATOM     15  C   UNL     1      24.171   5.142  51.353  1.00  0.00     0.049 A 
ATOM     16  C   UNL     1      23.990   5.915  53.647  1.00  0.00     0.060 A 
ATOM     17  C   UNL     1      23.650   6.023  52.296  1.00  0.00     0.039 A 
BRANCH  15  18
ATOM     18  N   UNL     1      23.786   5.286  50.012  1.00  0.00    -0.306 N 
ATOM     19  C   UNL     1      22.537   5.618  49.490  1.00  0.00     0.116 A 
ATOM     20  C   UNL     1      24.536   5.037  48.932  1.00  0.00     0.204 A 
ATOM     21  C   UNL     1      22.612   5.555  48.142  1.00  0.00     0.056 A 
ATOM     22  N   UNL     1      23.880   5.221  47.812  1.00  0.00    -0.242 NA
ATOM     23  C   UNL     1      21.525   5.847  47.137  1.00  0.00     0.068 C 
ENDBRANCH  15  18
BRANCH  16  24
ATOM     24  C   UNL     1      23.436   6.852  54.670  1.00  0.00     0.416 C 
ATOM     25  F   UNL     1      24.347   7.382  55.510  1.00  0.00    -0.166 F 
ATOM     26  F   UNL     1      22.926   7.936  54.098  1.00  0.00    -0.166 F 
ATOM     27  F   UNL     1      22.560   6.246  55.499  1.00  0.00    -0.166 F 
ENDBRANCH  16  24
ENDBRANCH  10  12
ENDBRANCH   1   8
BRANCH   6  28
ATOM     28  N   UNL     1      30.810  -0.759  52.164  1.00  0.00    -0.324 N 
ATOM     29  H   UNL     1      30.626  -1.492  51.464  1.00  0.00     0.170 HD
BRANCH  28  30
ATOM     30  C   UNL     1      32.101  -0.255  52.331  1.00  0.00     0.227 A 
ATOM     31  N   UNL     1      32.539   0.637  53.211  1.00  0.00    -0.221 NA
ATOM     32  N   UNL     1      32.880  -0.784  51.353  1.00  0.00    -0.213 NA
ATOM     33  C   UNL     1      33.837   0.985  53.126  1.00  0.00     0.117 A 
ATOM     34  C   UNL     1      34.155  -0.383  51.289  1.00  0.00     0.077 A 
ATOM     35  C   UNL     1      34.652   0.509  52.173  1.00  0.00     0.049 A 
BRANCH  34  36
ATOM     36  C   UNL     1      34.975  -1.017  50.223  1.00  0.00     0.019 A 
ATOM     37  C   UNL     1      36.012  -0.322  49.581  1.00  0.00     0.013 A 
ATOM     38  C   UNL     1      34.718  -2.341  49.816  1.00  0.00     0.121 A 
ATOM     39  C   UNL     1      36.728  -0.957  48.574  1.00  0.00     0.021 A 
ATOM     40  N   UNL     1      35.400  -2.956  48.841  1.00  0.00    -0.264 NA
ATOM     41  C   UNL     1      36.403  -2.276  48.261  1.00  0.00     0.111 A 
ENDBRANCH  34  36
ENDBRANCH  28  30
ENDBRANCH   6  28
TORSDOF 7
ENDMDL
MODEL 3
REMARK VINA RESULT:   -12.290      1.439      2.132
REMARK INTER + INTRA:         -15.835
REMARK INTER:                 -14.378
REMARK INTRA:                  -1.456
REMARK CONF_INDEPENDENT:        2.088
REMARK UNBOUND:                -1.456
REMARK SMILES Cc1cn(-c2cc(NC(=O)c3ccc(C)c(Nc4nccc(-c5cccnc5)n4)c3)cc(C(F)(F)F)c2)cn1
REMARK SMILES IDX 11 1 12 2 13 3 14 4 15 5 16 6 30 7 9 8 10 9 8 10 7 12 6 13
REMARK SMILES IDX 31 14 5 15 32 16 37 17 4 18 3 19 38 20 2 21 39 22 1 23 33 24
REMARK SMILES IDX 34 25 35 26 36 27 17 28 18 30 19 31 29 32 20 33 22 34 21 35
REMARK SMILES IDX 23 36 24 37 28 38 25 39 27 40 26 41
REMARK H PARENT 8 11 17 29
ROOT
ATOM      1  C   UNL     1      28.195   1.909  53.076  1.00  0.00     0.042 A 
ATOM      2  C   UNL     1      27.789   0.631  53.487  1.00  0.00     0.014 A 
ATOM      3  C   UNL     1      28.652  -0.217  54.183  1.00  0.00     0.006 A 
ATOM      4  C   UNL     1      29.969   0.138  54.423  1.00  0.00    -0.027 A 
ATOM      5  C   UNL     1      30.901  -0.800  55.177  1.00  0.00     0.046 C 
ATOM      6  C   UNL     1      30.409   1.364  53.926  1.00  0.00     0.045 A 
ATOM      7  C   UNL     1      29.521   2.211  53.252  1.00  0.00     0.040 A 
ENDROOT
BRANCH   1   8
ATOM      8  C   UNL     1      27.396   2.817  52.230  1.00  0.00     0.255 C 
ATOM      9  O   UNL     1      27.715   2.856  51.067  1.00  0.00    -0.269 OA
ATOM     10  N   UNL     1      26.267   3.294  52.776  1.00  0.00    -0.322 N 
ATOM     11  H   UNL     1      26.082   3.046  53.758  1.00  0.00     0.170 HD
BRANCH  10  12
ATOM     12  C   UNL     1      25.326   4.092  52.137  1.00  0.00     0.044 A 
ATOM     13  C   UNL     1      24.436   4.905  52.883  1.00  0.00     0.052 A 
ATOM     14  C   UNL     1      25.154   4.020  50.738  1.00  0.00     0.039 A 
ATOM     15  C   UNL     1      23.493   5.719  52.250  1.00  0.00     0.049 A 
ATOM     16  C   UNL     1      24.208   4.867  50.093  1.00  0.00     0.060 A 
ATOM     17  C   UNL     1      23.371   5.676  50.864  1.00  0.00     0.039 A 
BRANCH  15  18
ATOM     18  N   UNL     1      22.636   6.559  52.977  1.00  0.00    -0.306 N 
ATOM     19  C   UNL     1      22.413   7.926  52.824  1.00  0.00     0.116 A 
ATOM     20  C   UNL     1      21.909   6.226  54.050  1.00  0.00     0.204 A 
ATOM     21  C   UNL     1      21.571   8.328  53.801  1.00  0.00     0.056 A 
ATOM     22  N   UNL     1      21.241   7.243  54.538  1.00  0.00    -0.242 NA
ATOM     23  C   UNL     1      21.020   9.712  54.041  1.00  0.00     0.068 C 
ENDBRANCH  15  18
BRANCH  16  24
ATOM     24  C   UNL     1      24.089   4.813  48.604  1.00  0.00     0.416 C 
ATOM     25  F   UNL     1      24.594   3.702  48.032  1.00  0.00    -0.166 F 
ATOM     26  F   UNL     1      22.817   4.763  48.229  1.00  0.00    -0.166 F 
ATOM     27  F   UNL     1      24.766   5.812  48.000  1.00  0.00    -0.166 F 
ENDBRANCH  16  24
ENDBRANCH  10  12
ENDBRANCH   1   8
BRANCH   6  28
ATOM     28  N   UNL     1      31.683   1.814  54.295  1.00  0.00    -0.324 N 
ATOM     29  H   UNL     1      31.787   2.563  54.994  1.00  0.00     0.170 HD
BRANCH  28  30
ATOM     30  C   UNL     1      32.811   1.240  53.705  1.00  0.00     0.227 A 
ATOM     31  N   UNL     1      34.084   1.348  54.065  1.00  0.00    -0.221 NA
ATOM     32  N   UNL     1      32.402   0.574  52.595  1.00  0.00    -0.213 NA
ATOM     33  C   UNL     1      34.988   0.720  53.289  1.00  0.00     0.117 A 
ATOM     34  C   UNL     1      33.340  -0.006  51.837  1.00  0.00     0.077 A 
ATOM     35  C   UNL     1      34.647   0.060  52.171  1.00  0.00     0.049 A 
BRANCH  34  36
ATOM     36  C   UNL     1      32.838  -0.752  50.653  1.00  0.00     0.019 A 
ATOM     37  C   UNL     1      31.464  -0.925  50.421  1.00  0.00     0.013 A 
ATOM     38  C   UNL     1      33.739  -1.322  49.733  1.00  0.00     0.121 A 
ATOM     39  C   UNL     1      31.054  -1.652  49.311  1.00  0.00     0.021 A 
ATOM     40  N   UNL     1      33.350  -2.031  48.665  1.00  0.00    -0.264 NA
ATOM     41  C   UNL     1      32.030  -2.159  48.454  1.00  0.00     0.111 A 
ENDBRANCH  34  36
ENDBRANCH  28  30
ENDBRANCH   6  28
TORSDOF 7
ENDMDL
MODEL 4
REMARK VINA RESULT:   -12.124      1.555      3.585
REMARK INTER + INTRA:         -15.777
REMARK INTER:                 -14.212
REMARK INTRA:                  -1.565
REMARK CONF_INDEPENDENT:        2.088
REMARK UNBOUND:                -1.565
REMARK SMILES Cc1cn(-c2cc(NC(=O)c3ccc(C)c(Nc4nccc(-c5cccnc5)n4)c3)cc(C(F)(F)F)c2)cn1
REMARK SMILES IDX 11 1 12 2 13 3 14 4 15 5 16 6 30 7 9 8 10 9 8 10 7 12 6 13
REMARK SMILES IDX 31 14 5 15 32 16 37 17 4 18 3 19 38 20 2 21 39 22 1 23 33 24
REMARK SMILES IDX 34 25 35 26 36 27 17 28 18 30 19 31 29 32 20 33 22 34 21 35
REMARK SMILES IDX 23 36 24 37 28 38 25 39 27 40 26 41
REMARK H PARENT 8 11 17 29
ROOT
ATOM      1  C   UNL     1      27.696   1.520  52.982  1.00  0.00     0.042 A 
ATOM      2  C   UNL     1      27.365   0.893  54.193  1.00  0.00     0.014 A 
ATOM      3  C   UNL     1      28.067  -0.224  54.648  1.00  0.00     0.006 A 
ATOM      4  C   UNL     1      29.062  -0.809  53.882  1.00  0.00    -0.027 A 
ATOM      5  C   UNL     1      29.814  -2.032  54.388  1.00  0.00     0.046 C 
ATOM      6  C   UNL     1      29.325  -0.252  52.631  1.00  0.00     0.045 A 
ATOM      7  C   UNL     1      28.628   0.884  52.204  1.00  0.00     0.040 A 
ENDROOT
BRANCH   1   8
ATOM      8  C   UNL     1      26.931   2.622  52.366  1.00  0.00     0.255 C 
ATOM      9  O   UNL     1      27.186   2.846  51.208  1.00  0.00    -0.269 OA
ATOM     10  N   UNL     1      25.880   3.076  53.066  1.00  0.00    -0.322 N 
ATOM     11  H   UNL     1      25.730   2.670  54.000  1.00  0.00     0.170 HD
BRANCH  10  12
ATOM     12  C   UNL     1      24.976   4.043  52.646  1.00  0.00     0.044 A 
ATOM     13  C   UNL     1      24.102   4.671  53.567  1.00  0.00     0.052 A 
ATOM     14  C   UNL     1      24.825   4.336  51.273  1.00  0.00     0.039 A 
ATOM     15  C   UNL     1      23.196   5.653  53.156  1.00  0.00     0.049 A 
ATOM     16  C   UNL     1      23.917   5.352  50.858  1.00  0.00     0.060 A 
ATOM     17  C   UNL     1      23.095   5.968  51.804  1.00  0.00     0.039 A 
BRANCH  15  18
ATOM     18  N   UNL     1      22.356   6.311  54.067  1.00  0.00    -0.306 N 
ATOM     19  C   UNL     1      22.311   6.198  55.455  1.00  0.00     0.116 A 
ATOM     20  C   UNL     1      21.342   7.133  53.772  1.00  0.00     0.204 A 
ATOM     21  C   UNL     1      21.286   6.953  55.907  1.00  0.00     0.056 A 
ATOM     22  N   UNL     1      20.713   7.556  54.841  1.00  0.00    -0.242 NA
ATOM     23  C   UNL     1      20.849   7.168  57.336  1.00  0.00     0.068 C 
ENDBRANCH  15  18
BRANCH  16  24
ATOM     24  C   UNL     1      23.820   5.683  49.404  1.00  0.00     0.416 C 
ATOM     25  F   UNL     1      24.835   5.223  48.646  1.00  0.00    -0.166 F 
ATOM     26  F   UNL     1      22.771   5.090  48.848  1.00  0.00    -0.166 F 
ATOM     27  F   UNL     1      23.840   7.013  49.179  1.00  0.00    -0.166 F 
ENDBRANCH  16  24
ENDBRANCH  10  12
ENDBRANCH   1   8
BRANCH   6  28
ATOM     28  N   UNL     1      30.432  -0.722  51.912  1.00  0.00    -0.324 N 
ATOM     29  H   UNL     1      30.337  -1.533  51.285  1.00  0.00     0.170 HD
BRANCH  28  30
ATOM     30  C   UNL     1      31.665  -0.082  52.053  1.00  0.00     0.227 A 
ATOM     31  N   UNL     1      32.799  -0.307  51.402  1.00  0.00    -0.221 NA
ATOM     32  N   UNL     1      31.552   0.809  53.072  1.00  0.00    -0.213 NA
ATOM     33  C   UNL     1      33.864   0.432  51.768  1.00  0.00     0.117 A 
ATOM     34  C   UNL     1      32.646   1.497  53.420  1.00  0.00     0.077 A 
ATOM     35  C   UNL     1      33.818   1.317  52.776  1.00  0.00     0.049 A 
BRANCH  34  36
ATOM     36  C   UNL     1      32.461   2.484  54.516  1.00  0.00     0.019 A 
ATOM     37  C   UNL     1      33.358   3.548  54.705  1.00  0.00     0.013 A 
ATOM     38  C   UNL     1      31.379   2.367  55.410  1.00  0.00     0.121 A 
ATOM     39  C   UNL     1      33.149   4.426  55.762  1.00  0.00     0.021 A 
ATOM     40  N   UNL     1      31.178   3.206  56.434  1.00  0.00    -0.264 NA
ATOM     41  C   UNL     1      32.036   4.229  56.577  1.00  0.00     0.111 A 
ENDBRANCH  34  36
ENDBRANCH  28  30
ENDBRANCH   6  28
TORSDOF 7
ENDMDL
MODEL 5
REMARK VINA RESULT:   -11.575      3.746     11.794
REMARK INTER + INTRA:         -14.821
REMARK INTER:                 -13.663
REMARK INTRA:                  -1.158
REMARK CONF_INDEPENDENT:        2.088
REMARK UNBOUND:                -1.158
REMARK SMILES Cc1cn(-c2cc(NC(=O)c3ccc(C)c(Nc4nccc(-c5cccnc5)n4)c3)cc(C(F)(F)F)c2)cn1
REMARK SMILES IDX 11 1 12 2 13 3 14 4 15 5 16 6 30 7 9 8 10 9 8 10 7 12 6 13
REMARK SMILES IDX 31 14 5 15 32 16 37 17 4 18 3 19 38 20 2 21 39 22 1 23 33 24
REMARK SMILES IDX 34 25 35 26 36 27 17 28 18 30 19 31 29 32 20 33 22 34 21 35
REMARK SMILES IDX 23 36 24 37 28 38 25 39 27 40 26 41
REMARK H PARENT 8 11 17 29
ROOT
ATOM      1  C   UNL     1      25.908   3.797  51.889  1.00  0.00     0.042 A 
ATOM      2  C   UNL     1      25.267   4.218  50.715  1.00  0.00     0.014 A 
ATOM      3  C   UNL     1      24.132   5.030  50.756  1.00  0.00     0.006 A 
ATOM      4  C   UNL     1      23.546   5.383  51.961  1.00  0.00    -0.027 A 
ATOM      5  C   UNL     1      22.304   6.263  51.991  1.00  0.00     0.046 C 
ATOM      6  C   UNL     1      24.117   4.882  53.129  1.00  0.00     0.045 A 
ATOM      7  C   UNL     1      25.270   4.090  53.067  1.00  0.00     0.040 A 
ENDROOT
BRANCH   1   8
ATOM      8  C   UNL     1      27.030   2.840  51.941  1.00  0.00     0.255 C 
ATOM      9  O   UNL     1      27.762   2.847  50.982  1.00  0.00    -0.269 OA
ATOM     10  N   UNL     1      27.258   2.259  53.129  1.00  0.00    -0.322 N 
ATOM     11  H   UNL     1      26.597   2.474  53.889  1.00  0.00     0.170 HD
BRANCH  10  12
ATOM     12  C   UNL     1      28.304   1.395  53.427  1.00  0.00     0.044 A 
ATOM     13  C   UNL     1      29.612   1.642  52.941  1.00  0.00     0.052 A 
ATOM     14  C   UNL     1      28.063   0.188  54.120  1.00  0.00     0.039 A 
ATOM     15  C   UNL     1      30.673   0.783  53.244  1.00  0.00     0.049 A 
ATOM     16  C   UNL     1      29.149  -0.673  54.446  1.00  0.00     0.060 A 
ATOM     17  C   UNL     1      30.429  -0.376  53.973  1.00  0.00     0.039 A 
BRANCH  15  18
ATOM     18  N   UNL     1      31.980   1.041  52.803  1.00  0.00    -0.306 N 
ATOM     19  C   UNL     1      32.625   0.576  51.659  1.00  0.00     0.116 A 
ATOM     20  C   UNL     1      32.924   1.730  53.455  1.00  0.00     0.204 A 
ATOM     21  C   UNL     1      33.903   1.012  51.689  1.00  0.00     0.056 A 
ATOM     22  N   UNL     1      34.061   1.759  52.804  1.00  0.00    -0.242 NA
ATOM     23  C   UNL     1      34.987   0.784  50.663  1.00  0.00     0.068 C 
ENDBRANCH  15  18
BRANCH  16  24
ATOM     24  C   UNL     1      28.874  -1.914  55.232  1.00  0.00     0.416 C 
ATOM     25  F   UNL     1      28.045  -2.794  54.637  1.00  0.00    -0.166 F 
ATOM     26  F   UNL     1      29.978  -2.636  55.385  1.00  0.00    -0.166 F 
ATOM     27  F   UNL     1      28.263  -1.652  56.406  1.00  0.00    -0.166 F 
ENDBRANCH  16  24
ENDBRANCH  10  12
ENDBRANCH   1   8
BRANCH   6  28
ATOM     28  N   UNL     1      23.643   5.355  54.360  1.00  0.00    -0.324 N 
ATOM     29  H   UNL     1      22.699   5.101  54.684  1.00  0.00     0.170 HD
BRANCH  28  30
ATOM     30  C   UNL     1      24.460   6.173  55.143  1.00  0.00     0.227 A 
ATOM     31  N   UNL     1      25.732   6.500  54.957  1.00  0.00    -0.221 NA
ATOM     32  N   UNL     1      23.742   6.550  56.232  1.00  0.00    -0.213 NA
ATOM     33  C   UNL     1      26.301   7.279  55.898  1.00  0.00     0.117 A 
ATOM     34  C   UNL     1      24.359   7.296  57.155  1.00  0.00     0.077 A 
ATOM     35  C   UNL     1      25.648   7.670  57.003  1.00  0.00     0.049 A 
BRANCH  34  36
ATOM     36  C   UNL     1      23.522   7.712  58.311  1.00  0.00     0.019 A 
ATOM     37  C   UNL     1      23.912   8.755  59.165  1.00  0.00     0.013 A 
ATOM     38  C   UNL     1      22.309   7.052  58.588  1.00  0.00     0.121 A 
ATOM     39  C   UNL     1      23.102   9.083  60.244  1.00  0.00     0.021 A 
ATOM     40  N   UNL     1      21.527   7.358  59.632  1.00  0.00    -0.264 NA
ATOM     41  C   UNL     1      21.912   8.376  60.418  1.00  0.00     0.111 A 
ENDBRANCH  34  36
ENDBRANCH  28  30
ENDBRANCH   6  28
TORSDOF 7
ENDMDL
MODEL 6
REMARK VINA RESULT:   -11.541      4.121     11.223
REMARK INTER + INTRA:         -14.804
REMARK INTER:                 -13.629
REMARK INTRA:                  -1.175
REMARK CONF_INDEPENDENT:        2.088
REMARK UNBOUND:                -1.175
REMARK SMILES Cc1cn(-c2cc(NC(=O)c3ccc(C)c(Nc4nccc(-c5cccnc5)n4)c3)cc(C(F)(F)F)c2)cn1
REMARK SMILES IDX 11 1 12 2 13 3 14 4 15 5 16 6 30 7 9 8 10 9 8 10 7 12 6 13
REMARK SMILES IDX 31 14 5 15 32 16 37 17 4 18 3 19 38 20 2 21 39 22 1 23 33 24
REMARK SMILES IDX 34 25 35 26 36 27 17 28 18 30 19 31 29 32 20 33 22 34 21 35
REMARK SMILES IDX 23 36 24 37 28 38 25 39 27 40 26 41
REMARK H PARENT 8 11 17 29
ROOT
ATOM      1  C   UNL     1      25.833   3.914  52.045  1.00  0.00     0.042 A 
ATOM      2  C   UNL     1      25.267   4.459  50.883  1.00  0.00     0.014 A 
ATOM      3  C   UNL     1      24.162   5.309  50.943  1.00  0.00     0.006 A 
ATOM      4  C   UNL     1      23.530   5.582  52.145  1.00  0.00    -0.027 A 
ATOM      5  C   UNL     1      22.320   6.505  52.194  1.00  0.00     0.046 C 
ATOM      6  C   UNL     1      24.024   4.961  53.291  1.00  0.00     0.045 A 
ATOM      7  C   UNL     1      25.150   4.131  53.213  1.00  0.00     0.040 A 
ENDROOT
BRANCH   1   8
ATOM      8  C   UNL     1      26.917   2.911  52.066  1.00  0.00     0.255 C 
ATOM      9  O   UNL     1      27.583   2.848  51.061  1.00  0.00    -0.269 OA
ATOM     10  N   UNL     1      27.200   2.370  53.260  1.00  0.00    -0.322 N 
ATOM     11  H   UNL     1      26.600   2.644  54.051  1.00  0.00     0.170 HD
BRANCH  10  12
ATOM     12  C   UNL     1      28.227   1.474  53.527  1.00  0.00     0.044 A 
ATOM     13  C   UNL     1      29.536   1.700  53.034  1.00  0.00     0.052 A 
ATOM     14  C   UNL     1      27.963   0.257  54.193  1.00  0.00     0.039 A 
ATOM     15  C   UNL     1      30.578   0.810  53.305  1.00  0.00     0.049 A 
ATOM     16  C   UNL     1      29.031  -0.638  54.488  1.00  0.00     0.060 A 
ATOM     17  C   UNL     1      30.313  -0.361  54.008  1.00  0.00     0.039 A 
BRANCH  15  18
ATOM     18  N   UNL     1      31.887   1.046  52.857  1.00  0.00    -0.306 N 
ATOM     19  C   UNL     1      32.520   0.568  51.712  1.00  0.00     0.116 A 
ATOM     20  C   UNL     1      32.844   1.723  53.503  1.00  0.00     0.204 A 
ATOM     21  C   UNL     1      33.805   0.985  51.735  1.00  0.00     0.056 A 
ATOM     22  N   UNL     1      33.979   1.733  52.847  1.00  0.00    -0.242 NA
ATOM     23  C   UNL     1      34.880   0.737  50.705  1.00  0.00     0.068 C 
ENDBRANCH  15  18
BRANCH  16  24
ATOM     24  C   UNL     1      28.733  -1.891  55.247  1.00  0.00     0.416 C 
ATOM     25  F   UNL     1      27.881  -2.738  54.637  1.00  0.00    -0.166 F 
ATOM     26  F   UNL     1      29.822  -2.641  55.375  1.00  0.00    -0.166 F 
ATOM     27  F   UNL     1      28.136  -1.643  56.431  1.00  0.00    -0.166 F 
ENDBRANCH  16  24
ENDBRANCH  10  12
ENDBRANCH   1   8
BRANCH   6  28
ATOM     28  N   UNL     1      23.507   5.347  54.535  1.00  0.00    -0.324 N 
ATOM     29  H   UNL     1      22.809   4.759  55.012  1.00  0.00     0.170 HD
BRANCH  28  30
ATOM     30  C   UNL     1      23.946   6.535  55.122  1.00  0.00     0.227 A 
ATOM     31  N   UNL     1      23.936   7.764  54.622  1.00  0.00    -0.221 NA
ATOM     32  N   UNL     1      24.489   6.223  56.327  1.00  0.00    -0.213 NA
ATOM     33  C   UNL     1      24.466   8.735  55.391  1.00  0.00     0.117 A 
ATOM     34  C   UNL     1      25.031   7.216  57.041  1.00  0.00     0.077 A 
ATOM     35  C   UNL     1      25.030   8.486  56.583  1.00  0.00     0.049 A 
BRANCH  34  36
ATOM     36  C   UNL     1      25.580   6.829  58.367  1.00  0.00     0.019 A 
ATOM     37  C   UNL     1      24.740   6.485  59.438  1.00  0.00     0.013 A 
ATOM     38  C   UNL     1      26.971   6.811  58.588  1.00  0.00     0.121 A 
ATOM     39  C   UNL     1      25.309   6.156  60.662  1.00  0.00     0.021 A 
ATOM     40  N   UNL     1      27.524   6.502  59.767  1.00  0.00    -0.264 NA
ATOM     41  C   UNL     1      26.699   6.153  60.768  1.00  0.00     0.111 A 
ENDBRANCH  34  36
ENDBRANCH  28  30
ENDBRANCH   6  28
TORSDOF 7
ENDMDL
MODEL 7
REMARK VINA RESULT:   -11.413      2.015      3.091
REMARK INTER + INTRA:         -14.780
REMARK INTER:                 -13.501
REMARK INTRA:                  -1.279
REMARK CONF_INDEPENDENT:        2.088
REMARK UNBOUND:                -1.279
REMARK SMILES Cc1cn(-c2cc(NC(=O)c3ccc(C)c(Nc4nccc(-c5cccnc5)n4)c3)cc(C(F)(F)F)c2)cn1
REMARK SMILES IDX 11 1 12 2 13 3 14 4 15 5 16 6 30 7 9 8 10 9 8 10 7 12 6 13
REMARK SMILES IDX 31 14 5 15 32 16 37 17 4 18 3 19 38 20 2 21 39 22 1 23 33 24
REMARK SMILES IDX 34 25 35 26 36 27 17 28 18 30 19 31 29 32 20 33 22 34 21 35
REMARK SMILES IDX 23 36 24 37 28 38 25 39 27 40 26 41
REMARK H PARENT 8 11 17 29
ROOT
ATOM      1  C   UNL     1      26.910   2.455  52.382  1.00  0.00     0.042 A 
ATOM      2  C   UNL     1      27.054   1.084  52.124  1.00  0.00     0.014 A 
ATOM      3  C   UNL     1      27.817   0.264  52.957  1.00  0.00     0.006 A 
ATOM      4  C   UNL     1      28.529   0.787  54.024  1.00  0.00    -0.027 A 
ATOM      5  C   UNL     1      29.363  -0.118  54.920  1.00  0.00     0.046 C 
ATOM      6  C   UNL     1      28.473   2.166  54.224  1.00  0.00     0.045 A 
ATOM      7  C   UNL     1      27.682   2.968  53.391  1.00  0.00     0.040 A 
ENDROOT
BRANCH   1   8
ATOM      8  C   UNL     1      26.231   3.414  51.488  1.00  0.00     0.255 C 
ATOM      9  O   UNL     1      26.433   3.256  50.309  1.00  0.00    -0.269 OA
ATOM     10  N   UNL     1      25.285   4.180  52.052  1.00  0.00    -0.322 N 
ATOM     11  H   UNL     1      25.152   4.087  53.069  1.00  0.00     0.170 HD
BRANCH  10  12
ATOM     12  C   UNL     1      24.467   5.086  51.389  1.00  0.00     0.044 A 
ATOM     13  C   UNL     1      23.784   6.104  52.099  1.00  0.00     0.052 A 
ATOM     14  C   UNL     1      24.202   4.939  50.009  1.00  0.00     0.039 A 
ATOM     15  C   UNL     1      22.967   7.027  51.440  1.00  0.00     0.049 A 
ATOM     16  C   UNL     1      23.387   5.893  49.336  1.00  0.00     0.060 A 
ATOM     17  C   UNL     1      22.757   6.900  50.071  1.00  0.00     0.039 A 
BRANCH  15  18
ATOM     18  N   UNL     1      22.320   8.064  52.129  1.00  0.00    -0.306 N 
ATOM     19  C   UNL     1      21.509   7.991  53.260  1.00  0.00     0.116 A 
ATOM     20  C   UNL     1      22.275   9.354  51.776  1.00  0.00     0.204 A 
ATOM     21  C   UNL     1      21.035   9.229  53.519  1.00  0.00     0.056 A 
ATOM     22  N   UNL     1      21.552  10.074  52.599  1.00  0.00    -0.242 NA
ATOM     23  C   UNL     1      20.133   9.661  54.650  1.00  0.00     0.068 C 
ENDBRANCH  15  18
BRANCH  16  24
ATOM     24  C   UNL     1      23.173   5.748  47.864  1.00  0.00     0.416 C 
ATOM     25  F   UNL     1      22.693   6.846  47.247  1.00  0.00    -0.166 F 
ATOM     26  F   UNL     1      24.325   5.559  47.231  1.00  0.00    -0.166 F 
ATOM     27  F   UNL     1      22.261   4.799  47.570  1.00  0.00    -0.166 F 
ENDBRANCH  16  24
ENDBRANCH  10  12
ENDBRANCH   1   8
BRANCH   6  28
ATOM     28  N   UNL     1      29.050   2.695  55.386  1.00  0.00    -0.324 N 
ATOM     29  H   UNL     1      28.469   2.881  56.215  1.00  0.00     0.170 HD
BRANCH  28  30
ATOM     30  C   UNL     1      30.419   2.969  55.410  1.00  0.00     0.227 A 
ATOM     31  N   UNL     1      31.076   3.862  56.138  1.00  0.00    -0.221 NA
ATOM     32  N   UNL     1      31.011   2.192  54.466  1.00  0.00    -0.213 NA
ATOM     33  C   UNL     1      32.404   3.951  55.933  1.00  0.00     0.117 A 
ATOM     34  C   UNL     1      32.327   2.339  54.276  1.00  0.00     0.077 A 
ATOM     35  C   UNL     1      33.043   3.222  55.005  1.00  0.00     0.049 A 
BRANCH  34  36
ATOM     36  C   UNL     1      32.933   1.442  53.258  1.00  0.00     0.019 A 
ATOM     37  C   UNL     1      34.275   1.574  52.866  1.00  0.00     0.013 A 
ATOM     38  C   UNL     1      32.163   0.435  52.643  1.00  0.00     0.121 A 
ATOM     39  C   UNL     1      34.780   0.724  51.891  1.00  0.00     0.021 A 
ATOM     40  N   UNL     1      32.643  -0.382  51.697  1.00  0.00    -0.264 NA
ATOM     41  C   UNL     1      33.936  -0.250  51.360  1.00  0.00     0.111 A 
ENDBRANCH  34  36
ENDBRANCH  28  30
ENDBRANCH   6  28
TORSDOF 7
ENDMDL
MODEL 8
REMARK VINA RESULT:   -11.249      4.253     10.590
REMARK INTER + INTRA:         -14.660
REMARK INTER:                 -13.337
REMARK INTRA:                  -1.323
REMARK CONF_INDEPENDENT:        2.088
REMARK UNBOUND:                -1.323
REMARK SMILES Cc1cn(-c2cc(NC(=O)c3ccc(C)c(Nc4nccc(-c5cccnc5)n4)c3)cc(C(F)(F)F)c2)cn1
REMARK SMILES IDX 11 1 12 2 13 3 14 4 15 5 16 6 30 7 9 8 10 9 8 10 7 12 6 13
REMARK SMILES IDX 31 14 5 15 32 16 37 17 4 18 3 19 38 20 2 21 39 22 1 23 33 24
REMARK SMILES IDX 34 25 35 26 36 27 17 28 18 30 19 31 29 32 20 33 22 34 21 35
REMARK SMILES IDX 23 36 24 37 28 38 25 39 27 40 26 41
REMARK H PARENT 8 11 17 29
ROOT
ATOM      1  C   UNL     1      25.852   3.973  52.768  1.00  0.00     0.042 A 
ATOM      2  C   UNL     1      25.651   4.795  53.887  1.00  0.00     0.014 A 
ATOM      3  C   UNL     1      24.668   5.786  53.895  1.00  0.00     0.006 A 
ATOM      4  C   UNL     1      23.908   6.052  52.767  1.00  0.00    -0.027 A 
ATOM      5  C   UNL     1      22.845   7.141  52.787  1.00  0.00     0.046 C 
ATOM      6  C   UNL     1      24.174   5.309  51.618  1.00  0.00     0.045 A 
ATOM      7  C   UNL     1      25.148   4.302  51.639  1.00  0.00     0.040 A 
ENDROOT
BRANCH   1   8
ATOM      8  C   UNL     1      26.946   2.992  52.628  1.00  0.00     0.255 C 
ATOM      9  O   UNL     1      27.573   3.058  51.598  1.00  0.00    -0.269 OA
ATOM     10  N   UNL     1      27.283   2.318  53.738  1.00  0.00    -0.322 N 
ATOM     11  H   UNL     1      26.712   2.488  54.578  1.00  0.00     0.170 HD
BRANCH  10  12
ATOM     12  C   UNL     1      28.330   1.413  53.857  1.00  0.00     0.044 A 
ATOM     13  C   UNL     1      29.593   1.682  53.275  1.00  0.00     0.052 A 
ATOM     14  C   UNL     1      28.123   0.151  54.456  1.00  0.00     0.039 A 
ATOM     15  C   UNL     1      30.655   0.782  53.398  1.00  0.00     0.049 A 
ATOM     16  C   UNL     1      29.212  -0.755  54.600  1.00  0.00     0.060 A 
ATOM     17  C   UNL     1      30.450  -0.437  54.037  1.00  0.00     0.039 A 
BRANCH  15  18
ATOM     18  N   UNL     1      31.922   1.057  52.862  1.00  0.00    -0.306 N 
ATOM     19  C   UNL     1      32.492   0.594  51.677  1.00  0.00     0.116 A 
ATOM     20  C   UNL     1      32.899   1.767  53.439  1.00  0.00     0.204 A 
ATOM     21  C   UNL     1      33.761   1.051  51.612  1.00  0.00     0.056 A 
ATOM     22  N   UNL     1      33.986   1.810  52.707  1.00  0.00    -0.242 NA
ATOM     23  C   UNL     1      34.772   0.832  50.512  1.00  0.00     0.068 C 
ENDBRANCH  15  18
BRANCH  16  24
ATOM     24  C   UNL     1      28.979  -2.059  55.292  1.00  0.00     0.416 C 
ATOM     25  F   UNL     1      28.178  -2.918  54.633  1.00  0.00    -0.166 F 
ATOM     26  F   UNL     1      30.106  -2.754  55.391  1.00  0.00    -0.166 F 
ATOM     27  F   UNL     1      28.363  -1.904  56.482  1.00  0.00    -0.166 F 
ENDBRANCH  16  24
ENDBRANCH  10  12
ENDBRANCH   1   8
BRANCH   6  28
ATOM     28  N   UNL     1      23.314   5.446  50.521  1.00  0.00    -0.324 N 
ATOM     29  H   UNL     1      22.490   6.061  50.581  1.00  0.00     0.170 HD
BRANCH  28  30
ATOM     30  C   UNL     1      23.583   4.743  49.345  1.00  0.00     0.227 A 
ATOM     31  N   UNL     1      24.209   5.159  48.251  1.00  0.00    -0.221 NA
ATOM     32  N   UNL     1      23.010   3.518  49.457  1.00  0.00    -0.213 NA
ATOM     33  C   UNL     1      24.296   4.283  47.233  1.00  0.00     0.117 A 
ATOM     34  C   UNL     1      23.094   2.693  48.407  1.00  0.00     0.077 A 
ATOM     35  C   UNL     1      23.736   3.064  47.278  1.00  0.00     0.049 A 
BRANCH  34  36
ATOM     36  C   UNL     1      22.482   1.352  48.592  1.00  0.00     0.019 A 
ATOM     37  C   UNL     1      22.475   0.713  49.843  1.00  0.00     0.013 A 
ATOM     38  C   UNL     1      21.900   0.674  47.503  1.00  0.00     0.121 A 
ATOM     39  C   UNL     1      21.910  -0.552  49.951  1.00  0.00     0.021 A 
ATOM     40  N   UNL     1      21.361  -0.548  47.600  1.00  0.00    -0.264 NA
ATOM     41  C   UNL     1      21.345  -1.125  48.813  1.00  0.00     0.111 A 
ENDBRANCH  34  36
ENDBRANCH  28  30
ENDBRANCH   6  28
TORSDOF 7
ENDMDL
MODEL 9
REMARK VINA RESULT:   -11.158      2.817      4.525
REMARK INTER + INTRA:         -14.479
REMARK INTER:                 -13.247
REMARK INTRA:                  -1.233
REMARK CONF_INDEPENDENT:        2.088
REMARK UNBOUND:                -1.233
REMARK SMILES Cc1cn(-c2cc(NC(=O)c3ccc(C)c(Nc4nccc(-c5cccnc5)n4)c3)cc(C(F)(F)F)c2)cn1
REMARK SMILES IDX 11 1 12 2 13 3 14 4 15 5 16 6 30 7 9 8 10 9 8 10 7 12 6 13
REMARK SMILES IDX 31 14 5 15 32 16 37 17 4 18 3 19 38 20 2 21 39 22 1 23 33 24
REMARK SMILES IDX 34 25 35 26 36 27 17 28 18 30 19 31 29 32 20 33 22 34 21 35
REMARK SMILES IDX 23 36 24 37 28 38 25 39 27 40 26 41
REMARK H PARENT 8 11 17 29
ROOT
ATOM      1  C   UNL     1      29.552   1.305  52.459  1.00  0.00     0.042 A 
ATOM      2  C   UNL     1      30.085   1.183  53.751  1.00  0.00     0.014 A 
ATOM      3  C   UNL     1      31.430   0.871  53.955  1.00  0.00     0.006 A 
ATOM      4  C   UNL     1      32.272   0.589  52.892  1.00  0.00    -0.027 A 
ATOM      5  C   UNL     1      33.735   0.243  53.130  1.00  0.00     0.046 C 
ATOM      6  C   UNL     1      31.723   0.607  51.610  1.00  0.00     0.045 A 
ATOM      7  C   UNL     1      30.377   0.946  51.425  1.00  0.00     0.040 A 
ENDROOT
BRANCH   1   8
ATOM      8  C   UNL     1      28.122   1.504  52.152  1.00  0.00     0.255 C 
ATOM      9  O   UNL     1      27.465   0.496  52.064  1.00  0.00    -0.269 OA
ATOM     10  N   UNL     1      27.664   2.761  52.255  1.00  0.00    -0.322 N 
ATOM     11  H   UNL     1      28.355   3.494  52.472  1.00  0.00     0.170 HD
BRANCH  10  12
ATOM     12  C   UNL     1      26.345   3.165  52.095  1.00  0.00     0.044 A 
ATOM     13  C   UNL     1      25.616   2.823  50.929  1.00  0.00     0.052 A 
ATOM     14  C   UNL     1      25.739   4.028  53.034  1.00  0.00     0.039 A 
ATOM     15  C   UNL     1      24.285   3.216  50.763  1.00  0.00     0.049 A 
ATOM     16  C   UNL     1      24.376   4.409  52.874  1.00  0.00     0.060 A 
ATOM     17  C   UNL     1      23.685   4.024  51.723  1.00  0.00     0.039 A 
BRANCH  15  18
ATOM     18  N   UNL     1      23.542   2.846  49.632  1.00  0.00    -0.306 N 
ATOM     19  C   UNL     1      22.817   1.678  49.404  1.00  0.00     0.116 A 
ATOM     20  C   UNL     1      23.452   3.518  48.478  1.00  0.00     0.204 A 
ATOM     21  C   UNL     1      22.335   1.720  48.142  1.00  0.00     0.056 A 
ATOM     22  N   UNL     1      22.716   2.893  47.591  1.00  0.00    -0.242 NA
ATOM     23  C   UNL     1      21.476   0.695  47.442  1.00  0.00     0.068 C 
ENDBRANCH  15  18
BRANCH  16  24
ATOM     24  C   UNL     1      23.742   5.274  53.914  1.00  0.00     0.416 C 
ATOM     25  F   UNL     1      23.441   6.524  53.510  1.00  0.00    -0.166 F 
ATOM     26  F   UNL     1      22.550   4.803  54.264  1.00  0.00    -0.166 F 
ATOM     27  F   UNL     1      24.549   5.474  54.977  1.00  0.00    -0.166 F 
ENDBRANCH  16  24
ENDBRANCH  10  12
ENDBRANCH   1   8
BRANCH   6  28
ATOM     28  N   UNL     1      32.586   0.486  50.514  1.00  0.00    -0.324 N 
ATOM     29  H   UNL     1      32.857   1.319  49.972  1.00  0.00     0.170 HD
BRANCH  28  30
ATOM     30  C   UNL     1      33.075  -0.773  50.160  1.00  0.00     0.227 A 
ATOM     31  N   UNL     1      32.423  -1.926  50.076  1.00  0.00    -0.221 NA
ATOM     32  N   UNL     1      34.415  -0.658  49.977  1.00  0.00    -0.213 NA
ATOM     33  C   UNL     1      33.151  -3.011  49.752  1.00  0.00     0.117 A 
ATOM     34  C   UNL     1      35.102  -1.769  49.689  1.00  0.00     0.077 A 
ATOM     35  C   UNL     1      34.481  -2.963  49.574  1.00  0.00     0.049 A 
BRANCH  34  36
ATOM     36  C   UNL     1      36.559  -1.584  49.463  1.00  0.00     0.019 A 
ATOM     37  C   UNL     1      37.222  -2.205  48.393  1.00  0.00     0.013 A 
ATOM     38  C   UNL     1      37.322  -0.785  50.337  1.00  0.00     0.121 A 
ATOM     39  C   UNL     1      38.591  -2.016  48.246  1.00  0.00     0.021 A 
ATOM     40  N   UNL     1      38.643  -0.605  50.205  1.00  0.00    -0.264 NA
ATOM     41  C   UNL     1      39.247  -1.190  49.158  1.00  0.00     0.111 A 
ENDBRANCH  34  36
ENDBRANCH  28  30
ENDBRANCH   6  28
TORSDOF 7
ENDMDL
MODEL 10
REMARK VINA RESULT:   -11.124      1.670      2.526
REMARK INTER + INTRA:         -14.254
REMARK INTER:                 -13.213
REMARK INTRA:                  -1.042
REMARK CONF_INDEPENDENT:        2.088
REMARK UNBOUND:                -1.042
REMARK SMILES Cc1cn(-c2cc(NC(=O)c3ccc(C)c(Nc4nccc(-c5cccnc5)n4)c3)cc(C(F)(F)F)c2)cn1
REMARK SMILES IDX 11 1 12 2 13 3 14 4 15 5 16 6 30 7 9 8 10 9 8 10 7 12 6 13
REMARK SMILES IDX 31 14 5 15 32 16 37 17 4 18 3 19 38 20 2 21 39 22 1 23 33 24
REMARK SMILES IDX 34 25 35 26 36 27 17 28 18 30 19 31 29 32 20 33 22 34 21 35
REMARK SMILES IDX 23 36 24 37 28 38 25 39 27 40 26 41
REMARK H PARENT 8 11 17 29
ROOT
ATOM      1  C   UNL     1      27.060   2.345  52.423  1.00  0.00     0.042 A 
ATOM      2  C   UNL     1      27.253   1.145  51.722  1.00  0.00     0.014 A 
ATOM      3  C   UNL     1      28.202   0.208  52.134  1.00  0.00     0.006 A 
ATOM      4  C   UNL     1      29.047   0.462  53.202  1.00  0.00    -0.027 A 
ATOM      5  C   UNL     1      30.082  -0.566  53.635  1.00  0.00     0.046 C 
ATOM      6  C   UNL     1      28.930   1.697  53.838  1.00  0.00     0.045 A 
ATOM      7  C   UNL     1      27.955   2.614  53.426  1.00  0.00     0.040 A 
ENDROOT
BRANCH   1   8
ATOM      8  C   UNL     1      26.174   3.443  51.987  1.00  0.00     0.255 C 
ATOM      9  O   UNL     1      26.099   3.606  50.794  1.00  0.00    -0.269 OA
ATOM     10  N   UNL     1      25.369   3.962  52.927  1.00  0.00    -0.322 N 
ATOM     11  H   UNL     1      25.478   3.603  53.886  1.00  0.00     0.170 HD
BRANCH  10  12
ATOM     12  C   UNL     1      24.402   4.938  52.724  1.00  0.00     0.044 A 
ATOM     13  C   UNL     1      23.556   5.355  53.782  1.00  0.00     0.052 A 
ATOM     14  C   UNL     1      24.160   5.451  51.431  1.00  0.00     0.039 A 
ATOM     15  C   UNL     1      22.588   6.344  53.591  1.00  0.00     0.049 A 
ATOM     16  C   UNL     1      23.188   6.475  51.243  1.00  0.00     0.060 A 
ATOM     17  C   UNL     1      22.395   6.878  52.321  1.00  0.00     0.039 A 
BRANCH  15  18
ATOM     18  N   UNL     1      21.774   6.793  54.642  1.00  0.00    -0.306 N 
ATOM     19  C   UNL     1      21.004   7.952  54.719  1.00  0.00     0.116 A 
ATOM     20  C   UNL     1      21.640   6.230  55.848  1.00  0.00     0.204 A 
ATOM     21  C   UNL     1      20.456   8.013  55.952  1.00  0.00     0.056 A 
ATOM     22  N   UNL     1      20.840   6.910  56.633  1.00  0.00    -0.242 NA
ATOM     23  C   UNL     1      19.531   9.070  56.506  1.00  0.00     0.068 C 
ENDBRANCH  15  18
BRANCH  16  24
ATOM     24  C   UNL     1      22.994   7.043  49.874  1.00  0.00     0.416 C 
ATOM     25  F   UNL     1      24.067   6.955  49.064  1.00  0.00    -0.166 F 
ATOM     26  F   UNL     1      22.081   6.355  49.198  1.00  0.00    -0.166 F 
ATOM     27  F   UNL     1      22.728   8.365  49.901  1.00  0.00    -0.166 F 
ENDBRANCH  16  24
ENDBRANCH  10  12
ENDBRANCH   1   8
BRANCH   6  28
ATOM     28  N   UNL     1      29.657   1.912  55.016  1.00  0.00    -0.324 N 
ATOM     29  H   UNL     1      29.222   1.740  55.934  1.00  0.00     0.170 HD
BRANCH  28  30
ATOM     30  C   UNL     1      30.977   2.360  54.936  1.00  0.00     0.227 A 
ATOM     31  N   UNL     1      31.567   3.337  55.613  1.00  0.00    -0.221 NA
ATOM     32  N   UNL     1      31.591   1.659  53.948  1.00  0.00    -0.213 NA
ATOM     33  C   UNL     1      32.853   3.595  55.307  1.00  0.00     0.117 A 
ATOM     34  C   UNL     1      32.859   1.973  53.658  1.00  0.00     0.077 A 
ATOM     35  C   UNL     1      33.508   2.947  54.331  1.00  0.00     0.049 A 
BRANCH  34  36
ATOM     36  C   UNL     1      33.497   1.154  52.595  1.00  0.00     0.019 A 
ATOM     37  C   UNL     1      34.348   1.726  51.636  1.00  0.00     0.013 A 
ATOM     38  C   UNL     1      33.248  -0.231  52.513  1.00  0.00     0.121 A 
ATOM     39  C   UNL     1      34.895   0.916  50.650  1.00  0.00     0.021 A 
ATOM     40  N   UNL     1      33.767  -1.016  51.560  1.00  0.00    -0.264 NA
ATOM     41  C   UNL     1      34.597  -0.446  50.671  1.00  0.00     0.111 A 
ENDBRANCH  34  36
ENDBRANCH  28  30
ENDBRANCH   6  28
TORSDOF 7
ENDMDL
MODEL 11
REMARK VINA RESULT:   -11.110      3.625     12.284
REMARK INTER + INTRA:         -14.347
REMARK INTER:                 -13.198
REMARK INTRA:                  -1.149
REMARK CONF_INDEPENDENT:        2.088
REMARK UNBOUND:                -1.149
REMARK SMILES Cc1cn(-c2cc(NC(=O)c3ccc(C)c(Nc4nccc(-c5cccnc5)n4)c3)cc(C(F)(F)F)c2)cn1
REMARK SMILES IDX 11 1 12 2 13 3 14 4 15 5 16 6 30 7 9 8 10 9 8 10 7 12 6 13
REMARK SMILES IDX 31 14 5 15 32 16 37 17 4 18 3 19 38 20 2 21 39 22 1 23 33 24
REMARK SMILES IDX 34 25 35 26 36 27 17 28 18 30 19 31 29 32 20 33 22 34 21 35
REMARK SMILES IDX 23 36 24 37 28 38 25 39 27 40 26 41
REMARK H PARENT 8 11 17 29
ROOT
ATOM      1  C   UNL     1      25.760   3.741  51.872  1.00  0.00     0.042 A 
ATOM      2  C   UNL     1      25.279   4.302  50.679  1.00  0.00     0.014 A 
ATOM      3  C   UNL     1      24.115   5.071  50.654  1.00  0.00     0.006 A 
ATOM      4  C   UNL     1      23.343   5.242  51.791  1.00  0.00    -0.027 A 
ATOM      5  C   UNL     1      22.071   6.077  51.748  1.00  0.00     0.046 C 
ATOM      6  C   UNL     1      23.759   4.602  52.957  1.00  0.00     0.045 A 
ATOM      7  C   UNL     1      24.944   3.855  52.968  1.00  0.00     0.040 A 
ENDROOT
BRANCH   1   8
ATOM      8  C   UNL     1      26.905   2.815  51.968  1.00  0.00     0.255 C 
ATOM      9  O   UNL     1      27.662   2.828  51.028  1.00  0.00    -0.269 OA
ATOM     10  N   UNL     1      27.116   2.258  53.169  1.00  0.00    -0.322 N 
ATOM     11  H   UNL     1      26.430   2.466  53.908  1.00  0.00     0.170 HD
BRANCH  10  12
ATOM     12  C   UNL     1      28.176   1.426  53.508  1.00  0.00     0.044 A 
ATOM     13  C   UNL     1      29.497   1.726  53.092  1.00  0.00     0.052 A 
ATOM     14  C   UNL     1      27.944   0.202  54.172  1.00  0.00     0.039 A 
ATOM     15  C   UNL     1      30.571   0.901  53.436  1.00  0.00     0.049 A 
ATOM     16  C   UNL     1      29.043  -0.626  54.541  1.00  0.00     0.060 A 
ATOM     17  C   UNL     1      30.333  -0.278  54.136  1.00  0.00     0.039 A 
BRANCH  15  18
ATOM     18  N   UNL     1      31.888   1.210  53.065  1.00  0.00    -0.306 N 
ATOM     19  C   UNL     1      32.668   0.650  52.054  1.00  0.00     0.116 A 
ATOM     20  C   UNL     1      32.715   2.065  53.680  1.00  0.00     0.204 A 
ATOM     21  C   UNL     1      33.901   1.199  52.119  1.00  0.00     0.056 A 
ATOM     22  N   UNL     1      33.900   2.105  53.122  1.00  0.00    -0.242 NA
ATOM     23  C   UNL     1      35.086   0.928  51.225  1.00  0.00     0.068 C 
ENDBRANCH  15  18
BRANCH  16  24
ATOM     24  C   UNL     1      28.773  -1.888  55.295  1.00  0.00     0.416 C 
ATOM     25  F   UNL     1      27.892  -2.724  54.712  1.00  0.00    -0.166 F 
ATOM     26  F   UNL     1      29.863  -2.643  55.366  1.00  0.00    -0.166 F 
ATOM     27  F   UNL     1      28.228  -1.654  56.507  1.00  0.00    -0.166 F 
ENDBRANCH  16  24
ENDBRANCH  10  12
ENDBRANCH   1   8
BRANCH   6  28
ATOM     28  N   UNL     1      23.088   4.891  54.153  1.00  0.00    -0.324 N 
ATOM     29  H   UNL     1      22.514   4.171  54.613  1.00  0.00     0.170 HD
BRANCH  28  30
ATOM     30  C   UNL     1      23.205   6.164  54.715  1.00  0.00     0.227 A 
ATOM     31  N   UNL     1      24.203   6.671  55.427  1.00  0.00    -0.221 NA
ATOM     32  N   UNL     1      22.043   6.827  54.478  1.00  0.00    -0.213 NA
ATOM     33  C   UNL     1      24.039   7.925  55.892  1.00  0.00     0.117 A 
ATOM     34  C   UNL     1      21.914   8.057  54.987  1.00  0.00     0.077 A 
ATOM     35  C   UNL     1      22.909   8.624  55.704  1.00  0.00     0.049 A 
BRANCH  34  36
ATOM     36  C   UNL     1      20.640   8.753  54.670  1.00  0.00     0.019 A 
ATOM     37  C   UNL     1      19.466   8.507  55.401  1.00  0.00     0.013 A 
ATOM     38  C   UNL     1      20.573   9.676  53.608  1.00  0.00     0.121 A 
ATOM     39  C   UNL     1      18.298   9.168  55.043  1.00  0.00     0.021 A 
ATOM     40  N   UNL     1      19.448  10.310  53.254  1.00  0.00    -0.264 NA
ATOM     41  C   UNL     1      18.347  10.075  53.985  1.00  0.00     0.111 A 
ENDBRANCH  34  36
ENDBRANCH  28  30
ENDBRANCH   6  28
TORSDOF 7
ENDMDL
MODEL 12
REMARK VINA RESULT:   -11.007      3.824     11.737
REMARK INTER + INTRA:         -14.214
REMARK INTER:                 -13.095
REMARK INTRA:                  -1.119
REMARK CONF_INDEPENDENT:        2.088
REMARK UNBOUND:                -1.119
REMARK SMILES Cc1cn(-c2cc(NC(=O)c3ccc(C)c(Nc4nccc(-c5cccnc5)n4)c3)cc(C(F)(F)F)c2)cn1
REMARK SMILES IDX 11 1 12 2 13 3 14 4 15 5 16 6 30 7 9 8 10 9 8 10 7 12 6 13
REMARK SMILES IDX 31 14 5 15 32 16 37 17 4 18 3 19 38 20 2 21 39 22 1 23 33 24
REMARK SMILES IDX 34 25 35 26 36 27 17 28 18 30 19 31 29 32 20 33 22 34 21 35
REMARK SMILES IDX 23 36 24 37 28 38 25 39 27 40 26 41
REMARK H PARENT 8 11 17 29
ROOT
ATOM      1  C   UNL     1      25.699   3.547  51.817  1.00  0.00     0.042 A 
ATOM      2  C   UNL     1      24.839   3.441  50.713  1.00  0.00     0.014 A 
ATOM      3  C   UNL     1      23.517   3.882  50.776  1.00  0.00     0.006 A 
ATOM      4  C   UNL     1      22.977   4.365  51.957  1.00  0.00    -0.027 A 
ATOM      5  C   UNL     1      21.530   4.836  52.014  1.00  0.00     0.046 C 
ATOM      6  C   UNL     1      23.796   4.377  53.085  1.00  0.00     0.045 A 
ATOM      7  C   UNL     1      25.128   3.954  52.994  1.00  0.00     0.040 A 
ENDROOT
BRANCH   1   8
ATOM      8  C   UNL     1      27.066   2.994  51.877  1.00  0.00     0.255 C 
ATOM      9  O   UNL     1      27.614   2.848  50.812  1.00  0.00    -0.269 OA
ATOM     10  N   UNL     1      27.635   2.953  53.092  1.00  0.00    -0.322 N 
ATOM     11  H   UNL     1      27.054   3.247  53.890  1.00  0.00     0.170 HD
BRANCH  10  12
ATOM     12  C   UNL     1      28.935   2.552  53.371  1.00  0.00     0.044 A 
ATOM     13  C   UNL     1      29.567   1.545  52.600  1.00  0.00     0.052 A 
ATOM     14  C   UNL     1      29.613   3.052  54.504  1.00  0.00     0.039 A 
ATOM     15  C   UNL     1      30.878   1.142  52.867  1.00  0.00     0.049 A 
ATOM     16  C   UNL     1      30.956   2.656  54.761  1.00  0.00     0.060 A 
ATOM     17  C   UNL     1      31.552   1.682  53.957  1.00  0.00     0.039 A 
BRANCH  15  18
ATOM     18  N   UNL     1      31.527   0.176  52.083  1.00  0.00    -0.306 N 
ATOM     19  C   UNL     1      32.872   0.097  51.726  1.00  0.00     0.116 A 
ATOM     20  C   UNL     1      30.954  -0.841  51.427  1.00  0.00     0.204 A 
ATOM     21  C   UNL     1      33.026  -0.954  50.891  1.00  0.00     0.056 A 
ATOM     22  N   UNL     1      31.821  -1.547  50.742  1.00  0.00    -0.242 NA
ATOM     23  C   UNL     1      34.300  -1.454  50.253  1.00  0.00     0.068 C 
ENDBRANCH  15  18
BRANCH  16  24
ATOM     24  C   UNL     1      31.671   3.246  55.933  1.00  0.00     0.416 C 
ATOM     25  F   UNL     1      31.098   4.350  56.452  1.00  0.00    -0.166 F 
ATOM     26  F   UNL     1      31.656   2.416  56.969  1.00  0.00    -0.166 F 
ATOM     27  F   UNL     1      32.917   3.657  55.620  1.00  0.00    -0.166 F 
ENDBRANCH  16  24
ENDBRANCH  10  12
ENDBRANCH   1   8
BRANCH   6  28
ATOM     28  N   UNL     1      23.326   5.009  54.244  1.00  0.00    -0.324 N 
ATOM     29  H   UNL     1      22.363   4.847  54.570  1.00  0.00     0.170 HD
BRANCH  28  30
ATOM     30  C   UNL     1      24.175   5.862  54.953  1.00  0.00     0.227 A 
ATOM     31  N   UNL     1      25.427   6.206  54.680  1.00  0.00    -0.221 NA
ATOM     32  N   UNL     1      23.520   6.254  56.076  1.00  0.00    -0.213 NA
ATOM     33  C   UNL     1      26.037   7.019  55.563  1.00  0.00     0.117 A 
ATOM     34  C   UNL     1      24.179   7.035  56.940  1.00  0.00     0.077 A 
ATOM     35  C   UNL     1      25.448   7.427  56.698  1.00  0.00     0.049 A 
BRANCH  34  36
ATOM     36  C   UNL     1      23.407   7.465  58.135  1.00  0.00     0.019 A 
ATOM     37  C   UNL     1      24.021   8.137  59.204  1.00  0.00     0.013 A 
ATOM     38  C   UNL     1      22.029   7.192  58.232  1.00  0.00     0.121 A 
ATOM     39  C   UNL     1      23.255   8.493  60.307  1.00  0.00     0.021 A 
ATOM     40  N   UNL     1      21.286   7.526  59.296  1.00  0.00    -0.264 NA
ATOM     41  C   UNL     1      21.894   8.190  60.293  1.00  0.00     0.111 A 
ENDBRANCH  34  36
ENDBRANCH  28  30
ENDBRANCH   6  28
TORSDOF 7
ENDMDL
MODEL 13
REMARK VINA RESULT:   -10.890      8.360     15.199
REMARK INTER + INTRA:         -14.286
REMARK INTER:                 -12.978
REMARK INTRA:                  -1.308
REMARK CONF_INDEPENDENT:        2.088
REMARK UNBOUND:                -1.308
REMARK SMILES Cc1cn(-c2cc(NC(=O)c3ccc(C)c(Nc4nccc(-c5cccnc5)n4)c3)cc(C(F)(F)F)c2)cn1
REMARK SMILES IDX 11 1 12 2 13 3 14 4 15 5 16 6 30 7 9 8 10 9 8 10 7 12 6 13
REMARK SMILES IDX 31 14 5 15 32 16 37 17 4 18 3 19 38 20 2 21 39 22 1 23 33 24
REMARK SMILES IDX 34 25 35 26 36 27 17 28 18 30 19 31 29 32 20 33 22 34 21 35
REMARK SMILES IDX 23 36 24 37 28 38 25 39 27 40 26 41
REMARK H PARENT 8 11 17 29
ROOT
ATOM      1  C   UNL     1      35.985  -1.663  49.261  1.00  0.00     0.042 A 
ATOM      2  C   UNL     1      35.206  -2.824  49.153  1.00  0.00     0.014 A 
ATOM      3  C   UNL     1      33.833  -2.804  49.404  1.00  0.00     0.006 A 
ATOM      4  C   UNL     1      33.201  -1.655  49.851  1.00  0.00    -0.027 A 
ATOM      5  C   UNL     1      31.704  -1.650  50.128  1.00  0.00     0.046 C 
ATOM      6  C   UNL     1      33.989  -0.524  50.060  1.00  0.00     0.045 A 
ATOM      7  C   UNL     1      35.360  -0.558  49.778  1.00  0.00     0.040 A 
ENDROOT
BRANCH   1   8
ATOM      8  C   UNL     1      37.456  -1.620  49.139  1.00  0.00     0.255 C 
ATOM      9  O   UNL     1      38.042  -1.170  50.093  1.00  0.00    -0.269 OA
ATOM     10  N   UNL     1      37.984  -2.304  48.113  1.00  0.00    -0.322 N 
ATOM     11  H   UNL     1      37.325  -2.746  47.457  1.00  0.00     0.170 HD
BRANCH  10  12
ATOM     12  C   UNL     1      39.339  -2.469  47.854  1.00  0.00     0.044 A 
ATOM     13  C   UNL     1      39.906  -2.025  46.633  1.00  0.00     0.052 A 
ATOM     14  C   UNL     1      40.158  -3.191  48.749  1.00  0.00     0.039 A 
ATOM     15  C   UNL     1      41.269  -2.178  46.368  1.00  0.00     0.049 A 
ATOM     16  C   UNL     1      41.552  -3.326  48.488  1.00  0.00     0.060 A 
ATOM     17  C   UNL     1      42.075  -2.846  47.285  1.00  0.00     0.039 A 
BRANCH  15  18
ATOM     18  N   UNL     1      41.848  -1.705  45.181  1.00  0.00    -0.306 N 
ATOM     19  C   UNL     1      42.154  -0.394  44.818  1.00  0.00     0.116 A 
ATOM     20  C   UNL     1      42.147  -2.424  44.093  1.00  0.00     0.204 A 
ATOM     21  C   UNL     1      42.618  -0.405  43.549  1.00  0.00     0.056 A 
ATOM     22  N   UNL     1      42.637  -1.689  43.125  1.00  0.00    -0.242 NA
ATOM     23  C   UNL     1      43.095   0.765  42.724  1.00  0.00     0.068 C 
ENDBRANCH  15  18
BRANCH  16  24
ATOM     24  C   UNL     1      42.406  -4.042  49.482  1.00  0.00     0.416 C 
ATOM     25  F   UNL     1      42.124  -3.776  50.773  1.00  0.00    -0.166 F 
ATOM     26  F   UNL     1      42.209  -5.354  49.423  1.00  0.00    -0.166 F 
ATOM     27  F   UNL     1      43.709  -3.711  49.371  1.00  0.00    -0.166 F 
ENDBRANCH  16  24
ENDBRANCH  10  12
ENDBRANCH   1   8
BRANCH   6  28
ATOM     28  N   UNL     1      33.351   0.688  50.353  1.00  0.00    -0.324 N 
ATOM     29  H   UNL     1      33.013   1.294  49.592  1.00  0.00     0.170 HD
BRANCH  28  30
ATOM     30  C   UNL     1      33.178   1.068  51.685  1.00  0.00     0.227 A 
ATOM     31  N   UNL     1      33.879   1.938  52.401  1.00  0.00    -0.221 NA
ATOM     32  N   UNL     1      32.171   0.316  52.201  1.00  0.00    -0.213 NA
ATOM     33  C   UNL     1      33.524   2.087  53.691  1.00  0.00     0.117 A 
ATOM     34  C   UNL     1      31.876   0.476  53.496  1.00  0.00     0.077 A 
ATOM     35  C   UNL     1      32.549   1.362  54.261  1.00  0.00     0.049 A 
BRANCH  34  36
ATOM     36  C   UNL     1      30.745  -0.345  54.003  1.00  0.00     0.019 A 
ATOM     37  C   UNL     1      29.653   0.238  54.665  1.00  0.00     0.013 A 
ATOM     38  C   UNL     1      30.748  -1.744  53.842  1.00  0.00     0.121 A 
ATOM     39  C   UNL     1      28.636  -0.581  55.140  1.00  0.00     0.021 A 
ATOM     40  N   UNL     1      29.775  -2.540  54.304  1.00  0.00    -0.264 NA
ATOM     41  C   UNL     1      28.730  -1.954  54.912  1.00  0.00     0.111 A 
ENDBRANCH  34  36
ENDBRANCH  28  30
ENDBRANCH   6  28
TORSDOF 7
ENDMDL
MODEL 14
REMARK VINA RESULT:   -10.849      3.548     12.147
REMARK INTER + INTRA:         -14.216
REMARK INTER:                 -12.937
REMARK INTRA:                  -1.279
REMARK CONF_INDEPENDENT:        2.088
REMARK UNBOUND:                -1.279
REMARK SMILES Cc1cn(-c2cc(NC(=O)c3ccc(C)c(Nc4nccc(-c5cccnc5)n4)c3)cc(C(F)(F)F)c2)cn1
REMARK SMILES IDX 11 1 12 2 13 3 14 4 15 5 16 6 30 7 9 8 10 9 8 10 7 12 6 13
REMARK SMILES IDX 31 14 5 15 32 16 37 17 4 18 3 19 38 20 2 21 39 22 1 23 33 24
REMARK SMILES IDX 34 25 35 26 36 27 17 28 18 30 19 31 29 32 20 33 22 34 21 35
REMARK SMILES IDX 23 36 24 37 28 38 25 39 27 40 26 41
REMARK H PARENT 8 11 17 29
ROOT
ATOM      1  C   UNL     1      25.496   3.793  51.876  1.00  0.00     0.042 A 
ATOM      2  C   UNL     1      24.834   4.157  50.694  1.00  0.00     0.014 A 
ATOM      3  C   UNL     1      23.521   4.631  50.712  1.00  0.00     0.006 A 
ATOM      4  C   UNL     1      22.792   4.682  51.889  1.00  0.00    -0.027 A 
ATOM      5  C   UNL     1      21.359   5.194  51.892  1.00  0.00     0.046 C 
ATOM      6  C   UNL     1      23.409   4.224  53.052  1.00  0.00     0.045 A 
ATOM      7  C   UNL     1      24.736   3.775  53.017  1.00  0.00     0.040 A 
ENDROOT
BRANCH   1   8
ATOM      8  C   UNL     1      26.831   3.166  51.937  1.00  0.00     0.255 C 
ATOM      9  O   UNL     1      27.318   2.881  50.871  1.00  0.00    -0.269 OA
ATOM     10  N   UNL     1      27.453   3.212  53.125  1.00  0.00    -0.322 N 
ATOM     11  H   UNL     1      26.928   3.619  53.912  1.00  0.00     0.170 HD
BRANCH  10  12
ATOM     12  C   UNL     1      28.740   2.762  53.390  1.00  0.00     0.044 A 
ATOM     13  C   UNL     1      29.332   1.746  52.600  1.00  0.00     0.052 A 
ATOM     14  C   UNL     1      29.441   3.222  54.526  1.00  0.00     0.039 A 
ATOM     15  C   UNL     1      30.630   1.293  52.853  1.00  0.00     0.049 A 
ATOM     16  C   UNL     1      30.772   2.776  54.768  1.00  0.00     0.060 A 
ATOM     17  C   UNL     1      31.329   1.794  53.946  1.00  0.00     0.039 A 
BRANCH  15  18
ATOM     18  N   UNL     1      31.240   0.317  52.051  1.00  0.00    -0.306 N 
ATOM     19  C   UNL     1      32.597   0.099  51.817  1.00  0.00     0.116 A 
ATOM     20  C   UNL     1      30.625  -0.566  51.256  1.00  0.00     0.204 A 
ATOM     21  C   UNL     1      32.715  -0.895  50.910  1.00  0.00     0.056 A 
ATOM     22  N   UNL     1      31.470  -1.320  50.596  1.00  0.00    -0.242 NA
ATOM     23  C   UNL     1      33.981  -1.500  50.354  1.00  0.00     0.068 C 
ENDBRANCH  15  18
BRANCH  16  24
ATOM     24  C   UNL     1      31.513   3.324  55.944  1.00  0.00     0.416 C 
ATOM     25  F   UNL     1      31.649   2.472  56.980  1.00  0.00    -0.166 F 
ATOM     26  F   UNL     1      32.778   3.582  55.633  1.00  0.00    -0.166 F 
ATOM     27  F   UNL     1      30.890   4.387  56.493  1.00  0.00    -0.166 F 
ENDBRANCH  16  24
ENDBRANCH  10  12
ENDBRANCH   1   8
BRANCH   6  28
ATOM     28  N   UNL     1      22.753   4.416  54.274  1.00  0.00    -0.324 N 
ATOM     29  H   UNL     1      22.189   3.659  54.686  1.00  0.00     0.170 HD
BRANCH  28  30
ATOM     30  C   UNL     1      22.871   5.642  54.931  1.00  0.00     0.227 A 
ATOM     31  N   UNL     1      23.681   5.980  55.927  1.00  0.00    -0.221 NA
ATOM     32  N   UNL     1      21.924   6.473  54.424  1.00  0.00    -0.213 NA
ATOM     33  C   UNL     1      23.557   7.230  56.411  1.00  0.00     0.117 A 
ATOM     34  C   UNL     1      21.818   7.695  54.959  1.00  0.00     0.077 A 
ATOM     35  C   UNL     1      22.631   8.091  55.962  1.00  0.00     0.049 A 
BRANCH  34  36
ATOM     36  C   UNL     1      20.791   8.578  54.347  1.00  0.00     0.019 A 
ATOM     37  C   UNL     1      19.436   8.487  54.703  1.00  0.00     0.013 A 
ATOM     38  C   UNL     1      21.153   9.527  53.371  1.00  0.00     0.121 A 
ATOM     39  C   UNL     1      18.516   9.320  54.079  1.00  0.00     0.021 A 
ATOM     40  N   UNL     1      20.271  10.328  52.761  1.00  0.00    -0.264 NA
ATOM     41  C   UNL     1      18.985  10.237  53.139  1.00  0.00     0.111 A 
ENDBRANCH  34  36
ENDBRANCH  28  30
ENDBRANCH   6  28
TORSDOF 7
ENDMDL
MODEL 15
REMARK VINA RESULT:   -10.809      4.722     13.560
REMARK INTER + INTRA:         -14.239
REMARK INTER:                 -12.897
REMARK INTRA:                  -1.342
REMARK CONF_INDEPENDENT:        2.088
REMARK UNBOUND:                -1.342
REMARK SMILES Cc1cn(-c2cc(NC(=O)c3ccc(C)c(Nc4nccc(-c5cccnc5)n4)c3)cc(C(F)(F)F)c2)cn1
REMARK SMILES IDX 11 1 12 2 13 3 14 4 15 5 16 6 30 7 9 8 10 9 8 10 7 12 6 13
REMARK SMILES IDX 31 14 5 15 32 16 37 17 4 18 3 19 38 20 2 21 39 22 1 23 33 24
REMARK SMILES IDX 34 25 35 26 36 27 17 28 18 30 19 31 29 32 20 33 22 34 21 35
REMARK SMILES IDX 23 36 24 37 28 38 25 39 27 40 26 41
REMARK H PARENT 8 11 17 29
ROOT
ATOM      1  C   UNL     1      21.099   7.336  54.293  1.00  0.00     0.042 A 
ATOM      2  C   UNL     1      21.001   7.520  55.681  1.00  0.00     0.014 A 
ATOM      3  C   UNL     1      20.283   8.587  56.223  1.00  0.00     0.006 A 
ATOM      4  C   UNL     1      19.710   9.554  55.413  1.00  0.00    -0.027 A 
ATOM      5  C   UNL     1      18.937  10.716  56.019  1.00  0.00     0.046 C 
ATOM      6  C   UNL     1      19.892   9.433  54.036  1.00  0.00     0.045 A 
ATOM      7  C   UNL     1      20.594   8.341  53.510  1.00  0.00     0.040 A 
ENDROOT
BRANCH   1   8
ATOM      8  C   UNL     1      21.937   6.314  53.635  1.00  0.00     0.255 C 
ATOM      9  O   UNL     1      21.878   5.208  54.114  1.00  0.00    -0.269 OA
ATOM     10  N   UNL     1      22.463   6.656  52.449  1.00  0.00    -0.322 N 
ATOM     11  H   UNL     1      22.299   7.619  52.124  1.00  0.00     0.170 HD
BRANCH  10  12
ATOM     12  C   UNL     1      23.211   5.829  51.620  1.00  0.00     0.044 A 
ATOM     13  C   UNL     1      24.300   5.080  52.131  1.00  0.00     0.052 A 
ATOM     14  C   UNL     1      22.978   5.808  50.228  1.00  0.00     0.039 A 
ATOM     15  C   UNL     1      25.052   4.238  51.306  1.00  0.00     0.049 A 
ATOM     16  C   UNL     1      23.730   4.933  49.393  1.00  0.00     0.060 A 
ATOM     17  C   UNL     1      24.776   4.189  49.944  1.00  0.00     0.039 A 
BRANCH  15  18
ATOM     18  N   UNL     1      26.105   3.460  51.810  1.00  0.00    -0.306 N 
ATOM     19  C   UNL     1      26.463   3.224  53.136  1.00  0.00     0.116 A 
ATOM     20  C   UNL     1      27.059   2.847  51.099  1.00  0.00     0.204 A 
ATOM     21  C   UNL     1      27.595   2.486  53.143  1.00  0.00     0.056 A 
ATOM     22  N   UNL     1      27.934   2.234  51.859  1.00  0.00    -0.242 NA
ATOM     23  C   UNL     1      28.356   1.964  54.337  1.00  0.00     0.068 C 
ENDBRANCH  15  18
BRANCH  16  24
ATOM     24  C   UNL     1      23.422   4.887  47.932  1.00  0.00     0.416 C 
ATOM     25  F   UNL     1      22.354   5.616  47.552  1.00  0.00    -0.166 F 
ATOM     26  F   UNL     1      24.398   5.438  47.221  1.00  0.00    -0.166 F 
ATOM     27  F   UNL     1      23.117   3.642  47.511  1.00  0.00    -0.166 F 
ENDBRANCH  16  24
ENDBRANCH  10  12
ENDBRANCH   1   8
BRANCH   6  28
ATOM     28  N   UNL     1      19.188  10.302  53.192  1.00  0.00    -0.324 N 
ATOM     29  H   UNL     1      19.692  10.878  52.503  1.00  0.00     0.170 HD
BRANCH  28  30
ATOM     30  C   UNL     1      17.798  10.380  53.292  1.00  0.00     0.227 A 
ATOM     31  N   UNL     1      17.025  11.458  53.325  1.00  0.00    -0.221 NA
ATOM     32  N   UNL     1      17.323   9.116  53.435  1.00  0.00    -0.213 NA
ATOM     33  C   UNL     1      15.703  11.251  53.472  1.00  0.00     0.117 A 
ATOM     34  C   UNL     1      16.006   8.962  53.611  1.00  0.00     0.077 A 
ATOM     35  C   UNL     1      15.176  10.027  53.634  1.00  0.00     0.049 A 
BRANCH  34  36
ATOM     36  C   UNL     1      15.533   7.558  53.728  1.00  0.00     0.019 A 
ATOM     37  C   UNL     1      14.732   7.139  54.802  1.00  0.00     0.013 A 
ATOM     38  C   UNL     1      15.893   6.599  52.761  1.00  0.00     0.121 A 
ATOM     39  C   UNL     1      14.340   5.808  54.873  1.00  0.00     0.021 A 
ATOM     40  N   UNL     1      15.525   5.313  52.828  1.00  0.00    -0.264 NA
ATOM     41  C   UNL     1      14.738   4.945  53.853  1.00  0.00     0.111 A 
ENDBRANCH  34  36
ENDBRANCH  28  30
ENDBRANCH   6  28
TORSDOF 7
ENDMDL
MODEL 16
REMARK VINA RESULT:   -10.726      2.712      5.121
REMARK INTER + INTRA:         -14.382
REMARK INTER:                 -12.814
REMARK INTRA:                  -1.568
REMARK CONF_INDEPENDENT:        2.088
REMARK UNBOUND:                -1.568
REMARK SMILES Cc1cn(-c2cc(NC(=O)c3ccc(C)c(Nc4nccc(-c5cccnc5)n4)c3)cc(C(F)(F)F)c2)cn1
REMARK SMILES IDX 11 1 12 2 13 3 14 4 15 5 16 6 30 7 9 8 10 9 8 10 7 12 6 13
REMARK SMILES IDX 31 14 5 15 32 16 37 17 4 18 3 19 38 20 2 21 39 22 1 23 33 24
REMARK SMILES IDX 34 25 35 26 36 27 17 28 18 30 19 31 29 32 20 33 22 34 21 35
REMARK SMILES IDX 23 36 24 37 28 38 25 39 27 40 26 41
REMARK H PARENT 8 11 17 29
ROOT
ATOM      1  C   UNL     1      28.010   1.039  53.314  1.00  0.00     0.042 A 
ATOM      2  C   UNL     1      27.678   0.408  54.523  1.00  0.00     0.014 A 
ATOM      3  C   UNL     1      28.415  -0.676  55.003  1.00  0.00     0.006 A 
ATOM      4  C   UNL     1      29.452  -1.223  54.265  1.00  0.00    -0.027 A 
ATOM      5  C   UNL     1      30.243  -2.409  54.799  1.00  0.00     0.046 C 
ATOM      6  C   UNL     1      29.720  -0.666  53.016  1.00  0.00     0.045 A 
ATOM      7  C   UNL     1      28.985   0.437  52.563  1.00  0.00     0.040 A 
ENDROOT
BRANCH   1   8
ATOM      8  C   UNL     1      27.213   2.102  52.672  1.00  0.00     0.255 C 
ATOM      9  O   UNL     1      27.422   2.268  51.495  1.00  0.00    -0.269 OA
ATOM     10  N   UNL     1      26.186   2.586  53.387  1.00  0.00    -0.322 N 
ATOM     11  H   UNL     1      26.075   2.228  54.346  1.00  0.00     0.170 HD
BRANCH  10  12
ATOM     12  C   UNL     1      25.259   3.525  52.952  1.00  0.00     0.044 A 
ATOM     13  C   UNL     1      25.143   3.848  51.577  1.00  0.00     0.052 A 
ATOM     14  C   UNL     1      24.497   4.266  53.881  1.00  0.00     0.039 A 
ATOM     15  C   UNL     1      24.207   4.784  51.129  1.00  0.00     0.049 A 
ATOM     16  C   UNL     1      23.529   5.203  53.421  1.00  0.00     0.060 A 
ATOM     17  C   UNL     1      23.426   5.470  52.054  1.00  0.00     0.039 A 
BRANCH  15  18
ATOM     18  N   UNL     1      24.054   5.081  49.766  1.00  0.00    -0.306 N 
ATOM     19  C   UNL     1      23.523   6.224  49.172  1.00  0.00     0.116 A 
ATOM     20  C   UNL     1      24.311   4.266  48.735  1.00  0.00     0.204 A 
ATOM     21  C   UNL     1      23.497   6.033  47.835  1.00  0.00     0.056 A 
ATOM     22  N   UNL     1      24.024   4.815  47.580  1.00  0.00    -0.242 NA
ATOM     23  C   UNL     1      23.027   6.992  46.769  1.00  0.00     0.068 C 
ENDBRANCH  15  18
BRANCH  16  24
ATOM     24  C   UNL     1      22.694   5.929  54.425  1.00  0.00     0.416 C 
ATOM     25  F   UNL     1      22.441   7.220  54.128  1.00  0.00    -0.166 F 
ATOM     26  F   UNL     1      21.470   5.417  54.488  1.00  0.00    -0.166 F 
ATOM     27  F   UNL     1      23.288   5.996  55.634  1.00  0.00    -0.166 F 
ENDBRANCH  16  24
ENDBRANCH  10  12
ENDBRANCH   1   8
BRANCH   6  28
ATOM     28  N   UNL     1      30.862  -1.094  52.326  1.00  0.00    -0.324 N 
ATOM     29  H   UNL     1      30.838  -1.959  51.768  1.00  0.00     0.170 HD
BRANCH  28  30
ATOM     30  C   UNL     1      32.034  -0.338  52.402  1.00  0.00     0.227 A 
ATOM     31  N   UNL     1      33.181  -0.514  51.758  1.00  0.00    -0.221 NA
ATOM     32  N   UNL     1      31.845   0.620  53.345  1.00  0.00    -0.213 NA
ATOM     33  C   UNL     1      34.177   0.343  52.051  1.00  0.00     0.117 A 
ATOM     34  C   UNL     1      32.875   1.428  53.625  1.00  0.00     0.077 A 
ATOM     35  C   UNL     1      34.057   1.300  52.985  1.00  0.00     0.049 A 
BRANCH  34  36
ATOM     36  C   UNL     1      32.608   2.481  54.639  1.00  0.00     0.019 A 
ATOM     37  C   UNL     1      33.455   3.591  54.787  1.00  0.00     0.013 A 
ATOM     38  C   UNL     1      31.493   2.384  55.495  1.00  0.00     0.121 A 
ATOM     39  C   UNL     1      33.169   4.532  55.768  1.00  0.00     0.021 A 
ATOM     40  N   UNL     1      31.217   3.283  56.448  1.00  0.00    -0.264 NA
ATOM     41  C   UNL     1      32.030   4.348  56.551  1.00  0.00     0.111 A 
ENDBRANCH  34  36
ENDBRANCH  28  30
ENDBRANCH   6  28
TORSDOF 7
ENDMDL
MODEL 17
REMARK VINA RESULT:   -10.542      3.806     12.046
REMARK INTER + INTRA:         -13.797
REMARK INTER:                 -12.630
REMARK INTRA:                  -1.168
REMARK CONF_INDEPENDENT:        2.088
REMARK UNBOUND:                -1.168
REMARK SMILES Cc1cn(-c2cc(NC(=O)c3ccc(C)c(Nc4nccc(-c5cccnc5)n4)c3)cc(C(F)(F)F)c2)cn1
REMARK SMILES IDX 11 1 12 2 13 3 14 4 15 5 16 6 30 7 9 8 10 9 8 10 7 12 6 13
REMARK SMILES IDX 31 14 5 15 32 16 37 17 4 18 3 19 38 20 2 21 39 22 1 23 33 24
REMARK SMILES IDX 34 25 35 26 36 27 17 28 18 30 19 31 29 32 20 33 22 34 21 35
REMARK SMILES IDX 23 36 24 37 28 38 25 39 27 40 26 41
REMARK H PARENT 8 11 17 29
ROOT
ATOM      1  C   UNL     1      26.576   3.327  52.197  1.00  0.00     0.042 A 
ATOM      2  C   UNL     1      26.050   3.225  50.901  1.00  0.00     0.014 A 
ATOM      3  C   UNL     1      24.872   3.880  50.540  1.00  0.00     0.006 A 
ATOM      4  C   UNL     1      24.130   4.589  51.472  1.00  0.00    -0.027 A 
ATOM      5  C   UNL     1      22.843   5.292  51.066  1.00  0.00     0.046 C 
ATOM      6  C   UNL     1      24.593   4.608  52.786  1.00  0.00     0.045 A 
ATOM      7  C   UNL     1      25.791   3.966  53.122  1.00  0.00     0.040 A 
ENDROOT
BRANCH   1   8
ATOM      8  C   UNL     1      27.741   2.570  52.697  1.00  0.00     0.255 C 
ATOM      9  O   UNL     1      28.032   2.770  53.851  1.00  0.00    -0.269 OA
ATOM     10  N   UNL     1      28.182   1.577  51.911  1.00  0.00    -0.322 N 
ATOM     11  H   UNL     1      27.721   1.463  50.998  1.00  0.00     0.170 HD
BRANCH  10  12
ATOM     12  C   UNL     1      29.205   0.688  52.217  1.00  0.00     0.044 A 
ATOM     13  C   UNL     1      30.360   0.599  51.401  1.00  0.00     0.052 A 
ATOM     14  C   UNL     1      29.062  -0.232  53.279  1.00  0.00     0.039 A 
ATOM     15  C   UNL     1      31.398  -0.286  51.706  1.00  0.00     0.049 A 
ATOM     16  C   UNL     1      30.131  -1.117  53.601  1.00  0.00     0.060 A 
ATOM     17  C   UNL     1      31.265  -1.151  52.788  1.00  0.00     0.039 A 
BRANCH  15  18
ATOM     18  N   UNL     1      32.564  -0.351  50.929  1.00  0.00    -0.306 N 
ATOM     19  C   UNL     1      33.032  -1.400  50.139  1.00  0.00     0.116 A 
ATOM     20  C   UNL     1      33.533   0.569  50.858  1.00  0.00     0.204 A 
ATOM     21  C   UNL     1      34.238  -1.049  49.643  1.00  0.00     0.056 A 
ATOM     22  N   UNL     1      34.519   0.200  50.078  1.00  0.00    -0.242 NA
ATOM     23  C   UNL     1      35.130  -1.844  48.720  1.00  0.00     0.068 C 
ENDBRANCH  15  18
BRANCH  16  24
ATOM     24  C   UNL     1      29.977  -2.039  54.768  1.00  0.00     0.416 C 
ATOM     25  F   UNL     1      29.192  -1.575  55.760  1.00  0.00    -0.166 F 
ATOM     26  F   UNL     1      29.346  -3.153  54.416  1.00  0.00    -0.166 F 
ATOM     27  F   UNL     1      31.151  -2.284  55.385  1.00  0.00    -0.166 F 
ENDBRANCH  16  24
ENDBRANCH  10  12
ENDBRANCH   1   8
BRANCH   6  28
ATOM     28  N   UNL     1      23.953   5.449  53.706  1.00  0.00    -0.324 N 
ATOM     29  H   UNL     1      22.930   5.564  53.680  1.00  0.00     0.170 HD
BRANCH  28  30
ATOM     30  C   UNL     1      24.713   6.129  54.660  1.00  0.00     0.227 A 
ATOM     31  N   UNL     1      26.006   6.428  54.635  1.00  0.00    -0.221 NA
ATOM     32  N   UNL     1      23.906   6.392  55.719  1.00  0.00    -0.213 NA
ATOM     33  C   UNL     1      26.502   7.058  55.716  1.00  0.00     0.117 A 
ATOM     34  C   UNL     1      24.452   6.991  56.784  1.00  0.00     0.077 A 
ATOM     35  C   UNL     1      25.758   7.331  56.800  1.00  0.00     0.049 A 
BRANCH  34  36
ATOM     36  C   UNL     1      23.519   7.288  57.902  1.00  0.00     0.019 A 
ATOM     37  C   UNL     1      22.142   7.455  57.687  1.00  0.00     0.013 A 
ATOM     38  C   UNL     1      24.001   7.425  59.219  1.00  0.00     0.121 A 
ATOM     39  C   UNL     1      21.321   7.756  58.767  1.00  0.00     0.021 A 
ATOM     40  N   UNL     1      23.217   7.723  60.262  1.00  0.00    -0.264 NA
ATOM     41  C   UNL     1      21.900   7.853  60.032  1.00  0.00     0.111 A 
ENDBRANCH  34  36
ENDBRANCH  28  30
ENDBRANCH   6  28
TORSDOF 7
ENDMDL
MODEL 18
REMARK VINA RESULT:   -10.525      5.751     10.908
REMARK INTER + INTRA:         -13.779
REMARK INTER:                 -12.613
REMARK INTRA:                  -1.165
REMARK CONF_INDEPENDENT:        2.088
REMARK UNBOUND:                -1.165
REMARK SMILES Cc1cn(-c2cc(NC(=O)c3ccc(C)c(Nc4nccc(-c5cccnc5)n4)c3)cc(C(F)(F)F)c2)cn1
REMARK SMILES IDX 11 1 12 2 13 3 14 4 15 5 16 6 30 7 9 8 10 9 8 10 7 12 6 13
REMARK SMILES IDX 31 14 5 15 32 16 37 17 4 18 3 19 38 20 2 21 39 22 1 23 33 24
REMARK SMILES IDX 34 25 35 26 36 27 17 28 18 30 19 31 29 32 20 33 22 34 21 35
REMARK SMILES IDX 23 36 24 37 28 38 25 39 27 40 26 41
REMARK H PARENT 8 11 17 29
ROOT
ATOM      1  C   UNL     1      22.363   6.457  55.264  1.00  0.00     0.042 A 
ATOM      2  C   UNL     1      21.638   7.592  54.871  1.00  0.00     0.014 A 
ATOM      3  C   UNL     1      21.165   8.512  55.807  1.00  0.00     0.006 A 
ATOM      4  C   UNL     1      21.321   8.299  57.167  1.00  0.00    -0.027 A 
ATOM      5  C   UNL     1      20.793   9.308  58.177  1.00  0.00     0.046 C 
ATOM      6  C   UNL     1      21.950   7.121  57.568  1.00  0.00     0.045 A 
ATOM      7  C   UNL     1      22.440   6.222  56.612  1.00  0.00     0.040 A 
ENDROOT
BRANCH   1   8
ATOM      8  C   UNL     1      22.789   5.372  54.358  1.00  0.00     0.255 C 
ATOM      9  O   UNL     1      21.912   4.627  53.994  1.00  0.00    -0.269 OA
ATOM     10  N   UNL     1      24.024   5.480  53.845  1.00  0.00    -0.322 N 
ATOM     11  H   UNL     1      24.599   6.268  54.173  1.00  0.00     0.170 HD
BRANCH  10  12
ATOM     12  C   UNL     1      24.597   4.624  52.913  1.00  0.00     0.044 A 
ATOM     13  C   UNL     1      23.865   4.183  51.784  1.00  0.00     0.052 A 
ATOM     14  C   UNL     1      25.882   4.080  53.133  1.00  0.00     0.039 A 
ATOM     15  C   UNL     1      24.437   3.330  50.835  1.00  0.00     0.049 A 
ATOM     16  C   UNL     1      26.471   3.229  52.155  1.00  0.00     0.060 A 
ATOM     17  C   UNL     1      25.724   2.843  51.040  1.00  0.00     0.039 A 
BRANCH  15  18
ATOM     18  N   UNL     1      23.734   2.921  49.692  1.00  0.00    -0.306 N 
ATOM     19  C   UNL     1      22.921   1.802  49.517  1.00  0.00     0.116 A 
ATOM     20  C   UNL     1      23.776   3.487  48.480  1.00  0.00     0.204 A 
ATOM     21  C   UNL     1      22.524   1.766  48.227  1.00  0.00     0.056 A 
ATOM     22  N   UNL     1      23.043   2.847  47.602  1.00  0.00    -0.242 NA
ATOM     23  C   UNL     1      21.620   0.757  47.561  1.00  0.00     0.068 C 
ENDBRANCH  15  18
BRANCH  16  24
ATOM     24  C   UNL     1      27.855   2.716  52.385  1.00  0.00     0.416 C 
ATOM     25  F   UNL     1      28.010   1.391  52.194  1.00  0.00    -0.166 F 
ATOM     26  F   UNL     1      28.705   3.222  51.499  1.00  0.00    -0.166 F 
ATOM     27  F   UNL     1      28.266   2.900  53.657  1.00  0.00    -0.166 F 
ENDBRANCH  16  24
ENDBRANCH  10  12
ENDBRANCH   1   8
BRANCH   6  28
ATOM     28  N   UNL     1      22.263   6.961  58.924  1.00  0.00    -0.324 N 
ATOM     29  H   UNL     1      21.714   6.317  59.511  1.00  0.00     0.170 HD
BRANCH  28  30
ATOM     30  C   UNL     1      23.326   7.681  59.473  1.00  0.00     0.227 A 
ATOM     31  N   UNL     1      23.588   8.979  59.382  1.00  0.00    -0.221 NA
ATOM     32  N   UNL     1      24.150   6.794  60.089  1.00  0.00    -0.213 NA
ATOM     33  C   UNL     1      24.716   9.412  59.976  1.00  0.00     0.117 A 
ATOM     34  C   UNL     1      25.275   7.267  60.636  1.00  0.00     0.077 A 
ATOM     35  C   UNL     1      25.577   8.582  60.586  1.00  0.00     0.049 A 
BRANCH  34  36
ATOM     36  C   UNL     1      26.124   6.263  61.329  1.00  0.00     0.019 A 
ATOM     37  C   UNL     1      26.484   6.408  62.678  1.00  0.00     0.013 A 
ATOM     38  C   UNL     1      26.607   5.135  60.636  1.00  0.00     0.121 A 
ATOM     39  C   UNL     1      27.301   5.451  63.266  1.00  0.00     0.021 A 
ATOM     40  N   UNL     1      27.401   4.213  61.195  1.00  0.00    -0.264 NA
ATOM     41  C   UNL     1      27.709   4.364  62.494  1.00  0.00     0.111 A 
ENDBRANCH  34  36
ENDBRANCH  28  30
ENDBRANCH   6  28
TORSDOF 7
ENDMDL
MODEL 19
REMARK VINA RESULT:   -10.378      3.918     11.118
REMARK INTER + INTRA:         -13.910
REMARK INTER:                 -12.466
REMARK INTRA:                  -1.445
REMARK CONF_INDEPENDENT:        2.088
REMARK UNBOUND:                -1.445
REMARK SMILES Cc1cn(-c2cc(NC(=O)c3ccc(C)c(Nc4nccc(-c5cccnc5)n4)c3)cc(C(F)(F)F)c2)cn1
REMARK SMILES IDX 11 1 12 2 13 3 14 4 15 5 16 6 30 7 9 8 10 9 8 10 7 12 6 13
REMARK SMILES IDX 31 14 5 15 32 16 37 17 4 18 3 19 38 20 2 21 39 22 1 23 33 24
REMARK SMILES IDX 34 25 35 26 36 27 17 28 18 30 19 31 29 32 20 33 22 34 21 35
REMARK SMILES IDX 23 36 24 37 28 38 25 39 27 40 26 41
REMARK H PARENT 8 11 17 29
ROOT
ATOM      1  C   UNL     1      25.462   3.971  51.903  1.00  0.00     0.042 A 
ATOM      2  C   UNL     1      24.831   4.467  50.752  1.00  0.00     0.014 A 
ATOM      3  C   UNL     1      23.519   4.940  50.790  1.00  0.00     0.006 A 
ATOM      4  C   UNL     1      22.759   4.861  51.947  1.00  0.00    -0.027 A 
ATOM      5  C   UNL     1      21.327   5.374  51.971  1.00  0.00     0.046 C 
ATOM      6  C   UNL     1      23.347   4.274  53.066  1.00  0.00     0.045 A 
ATOM      7  C   UNL     1      24.674   3.828  53.015  1.00  0.00     0.040 A 
ENDROOT
BRANCH   1   8
ATOM      8  C   UNL     1      26.795   3.337  51.926  1.00  0.00     0.255 C 
ATOM      9  O   UNL     1      27.298   3.146  50.846  1.00  0.00    -0.269 OA
ATOM     10  N   UNL     1      27.400   3.276  53.122  1.00  0.00    -0.322 N 
ATOM     11  H   UNL     1      26.865   3.613  53.935  1.00  0.00     0.170 HD
BRANCH  10  12
ATOM     12  C   UNL     1      28.683   2.801  53.364  1.00  0.00     0.044 A 
ATOM     13  C   UNL     1      29.236   1.764  52.572  1.00  0.00     0.052 A 
ATOM     14  C   UNL     1      29.418   3.255  54.481  1.00  0.00     0.039 A 
ATOM     15  C   UNL     1      30.529   1.286  52.802  1.00  0.00     0.049 A 
ATOM     16  C   UNL     1      30.744   2.783  54.699  1.00  0.00     0.060 A 
ATOM     17  C   UNL     1      31.262   1.781  53.875  1.00  0.00     0.039 A 
BRANCH  15  18
ATOM     18  N   UNL     1      31.101   0.289  51.996  1.00  0.00    -0.306 N 
ATOM     19  C   UNL     1      32.444  -0.047  51.841  1.00  0.00     0.116 A 
ATOM     20  C   UNL     1      30.463  -0.500  51.124  1.00  0.00     0.204 A 
ATOM     21  C   UNL     1      32.532  -1.010  50.898  1.00  0.00     0.056 A 
ATOM     22  N   UNL     1      31.279  -1.303  50.486  1.00  0.00    -0.242 NA
ATOM     23  C   UNL     1      33.773  -1.709  50.397  1.00  0.00     0.068 C 
ENDBRANCH  15  18
BRANCH  16  24
ATOM     24  C   UNL     1      31.522   3.325  55.854  1.00  0.00     0.416 C 
ATOM     25  F   UNL     1      30.931   4.343  56.511  1.00  0.00    -0.166 F 
ATOM     26  F   UNL     1      31.649   2.416  56.814  1.00  0.00    -0.166 F 
ATOM     27  F   UNL     1      32.708   3.843  55.475  1.00  0.00    -0.166 F 
ENDBRANCH  16  24
ENDBRANCH  10  12
ENDBRANCH   1   8
BRANCH   6  28
ATOM     28  N   UNL     1      22.661   4.330  54.286  1.00  0.00    -0.324 N 
ATOM     29  H   UNL     1      22.243   3.478  54.686  1.00  0.00     0.170 HD
BRANCH  28  30
ATOM     30  C   UNL     1      22.548   5.551  54.955  1.00  0.00     0.227 A 
ATOM     31  N   UNL     1      21.548   6.424  54.931  1.00  0.00    -0.221 NA
ATOM     32  N   UNL     1      23.713   5.767  55.617  1.00  0.00    -0.213 NA
ATOM     33  C   UNL     1      21.716   7.555  55.641  1.00  0.00     0.117 A 
ATOM     34  C   UNL     1      23.846   6.920  56.282  1.00  0.00     0.077 A 
ATOM     35  C   UNL     1      22.850   7.833  56.303  1.00  0.00     0.049 A 
BRANCH  34  36
ATOM     36  C   UNL     1      25.125   7.094  57.018  1.00  0.00     0.019 A 
ATOM     37  C   UNL     1      26.363   6.818  56.416  1.00  0.00     0.013 A 
ATOM     38  C   UNL     1      25.127   7.530  58.357  1.00  0.00     0.121 A 
ATOM     39  C   UNL     1      27.526   6.974  57.161  1.00  0.00     0.021 A 
ATOM     40  N   UNL     1      26.243   7.675  59.082  1.00  0.00    -0.264 NA
ATOM     41  C   UNL     1      27.415   7.429  58.474  1.00  0.00     0.111 A 
ENDBRANCH  34  36
ENDBRANCH  28  30
ENDBRANCH   6  28
TORSDOF 7
ENDMDL
MODEL 20
REMARK VINA RESULT:   -10.186      4.405     10.539
REMARK INTER + INTRA:         -13.775
REMARK INTER:                 -12.274
REMARK INTRA:                  -1.501
REMARK CONF_INDEPENDENT:        2.088
REMARK UNBOUND:                -1.501
REMARK SMILES Cc1cn(-c2cc(NC(=O)c3ccc(C)c(Nc4nccc(-c5cccnc5)n4)c3)cc(C(F)(F)F)c2)cn1
REMARK SMILES IDX 11 1 12 2 13 3 14 4 15 5 16 6 30 7 9 8 10 9 8 10 7 12 6 13
REMARK SMILES IDX 31 14 5 15 32 16 37 17 4 18 3 19 38 20 2 21 39 22 1 23 33 24
REMARK SMILES IDX 34 25 35 26 36 27 17 28 18 30 19 31 29 32 20 33 22 34 21 35
REMARK SMILES IDX 23 36 24 37 28 38 25 39 27 40 26 41
REMARK H PARENT 8 11 17 29
ROOT
ATOM      1  C   UNL     1      25.753   3.685  52.801  1.00  0.00     0.042 A 
ATOM      2  C   UNL     1      24.866   3.623  53.886  1.00  0.00     0.014 A 
ATOM      3  C   UNL     1      23.623   4.256  53.846  1.00  0.00     0.006 A 
ATOM      4  C   UNL     1      23.251   5.041  52.767  1.00  0.00    -0.027 A 
ATOM      5  C   UNL     1      21.895   5.732  52.740  1.00  0.00     0.046 C 
ATOM      6  C   UNL     1      24.171   5.191  51.730  1.00  0.00     0.045 A 
ATOM      7  C   UNL     1      25.403   4.527  51.778  1.00  0.00     0.040 A 
ENDROOT
BRANCH   1   8
ATOM      8  C   UNL     1      27.131   3.155  52.807  1.00  0.00     0.255 C 
ATOM      9  O   UNL     1      27.560   2.816  51.731  1.00  0.00    -0.269 OA
ATOM     10  N   UNL     1      27.832   3.341  53.935  1.00  0.00    -0.322 N 
ATOM     11  H   UNL     1      27.337   3.776  54.727  1.00  0.00     0.170 HD
BRANCH  10  12
ATOM     12  C   UNL     1      29.164   3.001  54.134  1.00  0.00     0.044 A 
ATOM     13  C   UNL     1      29.797   2.032  53.317  1.00  0.00     0.052 A 
ATOM     14  C   UNL     1      29.883   3.525  55.231  1.00  0.00     0.039 A 
ATOM     15  C   UNL     1      31.139   1.691  53.502  1.00  0.00     0.049 A 
ATOM     16  C   UNL     1      31.257   3.192  55.405  1.00  0.00     0.060 A 
ATOM     17  C   UNL     1      31.850   2.255  54.557  1.00  0.00     0.039 A 
BRANCH  15  18
ATOM     18  N   UNL     1      31.786   0.763  52.672  1.00  0.00    -0.306 N 
ATOM     19  C   UNL     1      31.240  -0.073  51.700  1.00  0.00     0.116 A 
ATOM     20  C   UNL     1      33.079   0.420  52.709  1.00  0.00     0.204 A 
ATOM     21  C   UNL     1      32.227  -0.856  51.213  1.00  0.00     0.056 A 
ATOM     22  N   UNL     1      33.376  -0.510  51.835  1.00  0.00    -0.242 NA
ATOM     23  C   UNL     1      32.132  -1.906  50.133  1.00  0.00     0.068 C 
ENDBRANCH  15  18
BRANCH  16  24
ATOM     24  C   UNL     1      32.010   3.808  56.539  1.00  0.00     0.416 C 
ATOM     25  F   UNL     1      32.390   2.948  57.504  1.00  0.00    -0.166 F 
ATOM     26  F   UNL     1      33.175   4.295  56.129  1.00  0.00    -0.166 F 
ATOM     27  F   UNL     1      31.275   4.722  57.206  1.00  0.00    -0.166 F 
ENDBRANCH  16  24
ENDBRANCH  10  12
ENDBRANCH   1   8
BRANCH   6  28
ATOM     28  N   UNL     1      23.757   5.843  50.561  1.00  0.00    -0.324 N 
ATOM     29  H   UNL     1      23.353   6.789  50.608  1.00  0.00     0.170 HD
BRANCH  28  30
ATOM     30  C   UNL     1      23.896   5.198  49.330  1.00  0.00     0.227 A 
ATOM     31  N   UNL     1      24.413   5.664  48.200  1.00  0.00    -0.221 NA
ATOM     32  N   UNL     1      23.320   3.973  49.439  1.00  0.00    -0.213 NA
ATOM     33  C   UNL     1      24.384   4.840  47.136  1.00  0.00     0.117 A 
ATOM     34  C   UNL     1      23.286   3.202  48.346  1.00  0.00     0.077 A 
ATOM     35  C   UNL     1      23.815   3.624  47.177  1.00  0.00     0.049 A 
BRANCH  34  36
ATOM     36  C   UNL     1      22.677   1.859  48.526  1.00  0.00     0.019 A 
ATOM     37  C   UNL     1      22.884   1.108  49.695  1.00  0.00     0.013 A 
ATOM     38  C   UNL     1      21.882   1.292  47.511  1.00  0.00     0.121 A 
ATOM     39  C   UNL     1      22.310  -0.153  49.797  1.00  0.00     0.021 A 
ATOM     40  N   UNL     1      21.333   0.074  47.601  1.00  0.00    -0.264 NA
ATOM     41  C   UNL     1      21.525  -0.611  48.740  1.00  0.00     0.111 A 
ENDBRANCH  34  36
ENDBRANCH  28  30
ENDBRANCH   6  28
TORSDOF 7
ENDMDL
