MODEL 1
REMARK VINA RESULT:   -15.150      0.000      0.000
REMARK INTER + INTRA:         -18.422
REMARK INTER:                 -17.238
REMARK INTRA:                  -1.184
REMARK CONF_INDEPENDENT:        2.088
REMARK UNBOUND:                -1.184
REMARK SMILES Cc1cn(-c2cc(NC(=O)c3ccc(C)c(Nc4nccc(-c5cccnc5)n4)c3)cc(C(F)(F)F)c2)cn1
REMARK SMILES IDX 11 1 12 2 13 3 14 4 15 5 16 6 30 7 9 8 10 9 8 10 7 12 6 13
REMARK SMILES IDX 31 14 5 15 32 16 37 17 4 18 3 19 38 20 2 21 39 22 1 23 33 24
REMARK SMILES IDX 34 25 35 26 36 27 17 28 18 30 19 31 29 32 20 33 22 34 21 35
REMARK SMILES IDX 23 36 24 37 28 38 25 39 27 40 26 41
REMARK H PARENT 8 11 17 29
ROOT
ATOM      1  C   UNL     1      27.980   1.864  53.230  1.00  0.00     0.042 A 
ATOM      2  C   UNL     1      27.698   1.347  54.504  1.00  0.00     0.014 A 
ATOM      3  C   UNL     1      28.415   0.270  55.027  1.00  0.00     0.006 A 
ATOM      4  C   UNL     1      29.378  -0.385  54.275  1.00  0.00    -0.027 A 
ATOM      5  C   UNL     1      30.147  -1.563  54.856  1.00  0.00     0.046 C 
ATOM      6  C   UNL     1      29.591   0.058  52.971  1.00  0.00     0.045 A 
ATOM      7  C   UNL     1      28.878   1.157  52.474  1.00  0.00     0.040 A 
ENDROOT
BRANCH   1   8
ATOM      8  C   UNL     1      27.192   2.911  52.552  1.00  0.00     0.255 C 
ATOM      9  O   UNL     1      27.553   3.189  51.434  1.00  0.00    -0.269 OA
ATOM     10  N   UNL     1      26.034   3.252  53.136  1.00  0.00    -0.322 N 
ATOM     11  H   UNL     1      25.818   2.809  54.040  1.00  0.00     0.170 HD
BRANCH  10  12
ATOM     12  C   UNL     1      25.099   4.149  52.633  1.00  0.00     0.044 A 
ATOM     13  C   UNL     1      24.175   4.793  53.492  1.00  0.00     0.052 A 
ATOM     14  C   UNL     1      24.971   4.347  51.241  1.00  0.00     0.039 A 
ATOM     15  C   UNL     1      23.237   5.704  52.997  1.00  0.00     0.049 A 
ATOM     16  C   UNL     1      24.030   5.292  50.741  1.00  0.00     0.060 A 
ATOM     17  C   UNL     1      23.157   5.928  51.627  1.00  0.00     0.039 A 
BRANCH  15  18
ATOM     18  N   UNL     1      22.345   6.379  53.844  1.00  0.00    -0.306 N 
ATOM     19  C   UNL     1      22.030   6.112  55.176  1.00  0.00     0.116 A 
ATOM     20  C   UNL     1      21.528   7.384  53.510  1.00  0.00     0.204 A 
ATOM     21  C   UNL     1      21.057   6.967  55.559  1.00  0.00     0.056 A 
ATOM     22  N   UNL     1      20.780   7.776  54.512  1.00  0.00    -0.242 NA
ATOM     23  C   UNL     1      20.400   7.080  56.913  1.00  0.00     0.068 C 
ENDBRANCH  15  18
BRANCH  16  24
ATOM     24  C   UNL     1      23.957   5.526  49.267  1.00  0.00     0.416 C 
ATOM     25  F   UNL     1      24.660   6.587  48.823  1.00  0.00    -0.166 F 
ATOM     26  F   UNL     1      24.517   4.526  48.597  1.00  0.00    -0.166 F 
ATOM     27  F   UNL     1      22.701   5.787  48.851  1.00  0.00    -0.166 F 
ENDBRANCH  16  24
ENDBRANCH  10  12
ENDBRANCH   1   8
BRANCH   6  28
ATOM     28  N   UNL     1      30.666  -0.478  52.251  1.00  0.00    -0.324 N 
ATOM     29  H   UNL     1      30.525  -1.292  51.636  1.00  0.00     0.170 HD
BRANCH  28  30
ATOM     30  C   UNL     1      31.932   0.098  52.375  1.00  0.00     0.227 A 
ATOM     31  N   UNL     1      32.329   1.068  53.190  1.00  0.00    -0.221 NA
ATOM     32  N   UNL     1      32.732  -0.457  51.429  1.00  0.00    -0.213 NA
ATOM     33  C   UNL     1      33.608   1.471  53.073  1.00  0.00     0.117 A 
ATOM     34  C   UNL     1      33.986  -0.000  51.329  1.00  0.00     0.077 A 
ATOM     35  C   UNL     1      34.442   0.972  52.148  1.00  0.00     0.049 A 
BRANCH  34  36
ATOM     36  C   UNL     1      34.831  -0.664  50.303  1.00  0.00     0.019 A 
ATOM     37  C   UNL     1      36.119  -0.197  49.997  1.00  0.00     0.013 A 
ATOM     38  C   UNL     1      34.350  -1.782  49.593  1.00  0.00     0.121 A 
ATOM     39  C   UNL     1      36.854  -0.842  49.010  1.00  0.00     0.021 A 
ATOM     40  N   UNL     1      35.050  -2.403  48.636  1.00  0.00    -0.264 NA
ATOM     41  C   UNL     1      36.289  -1.951  48.381  1.00  0.00     0.111 A 
ENDBRANCH  34  36
ENDBRANCH  28  30
ENDBRANCH   6  28
TORSDOF 7
ENDMDL
MODEL 2
REMARK VINA RESULT:   -14.152      1.149      1.600
REMARK INTER + INTRA:         -17.477
REMARK INTER:                 -16.240
REMARK INTRA:                  -1.237
REMARK CONF_INDEPENDENT:        2.088
REMARK UNBOUND:                -1.237
REMARK SMILES Cc1cn(-c2cc(NC(=O)c3ccc(C)c(Nc4nccc(-c5cccnc5)n4)c3)cc(C(F)(F)F)c2)cn1
REMARK SMILES IDX 11 1 12 2 13 3 14 4 15 5 16 6 30 7 9 8 10 9 8 10 7 12 6 13
REMARK SMILES IDX 31 14 5 15 32 16 37 17 4 18 3 19 38 20 2 21 39 22 1 23 33 24
REMARK SMILES IDX 34 25 35 26 36 27 17 28 18 30 19 31 29 32 20 33 22 34 21 35
REMARK SMILES IDX 23 36 24 37 28 38 25 39 27 40 26 41
REMARK H PARENT 8 11 17 29
ROOT
ATOM      1  C   UNL     1      27.868   2.035  52.861  1.00  0.00     0.042 A 
ATOM      2  C   UNL     1      27.467   1.649  54.149  1.00  0.00     0.014 A 
ATOM      3  C   UNL     1      28.125   0.631  54.841  1.00  0.00     0.006 A 
ATOM      4  C   UNL     1      29.147  -0.095  54.250  1.00  0.00    -0.027 A 
ATOM      5  C   UNL     1      29.851  -1.208  55.013  1.00  0.00     0.046 C 
ATOM      6  C   UNL     1      29.481   0.215  52.932  1.00  0.00     0.045 A 
ATOM      7  C   UNL     1      28.825   1.257  52.264  1.00  0.00     0.040 A 
ENDROOT
BRANCH   1   8
ATOM      8  C   UNL     1      27.153   3.008  52.012  1.00  0.00     0.255 C 
ATOM      9  O   UNL     1      27.653   3.222  50.935  1.00  0.00    -0.269 OA
ATOM     10  N   UNL     1      25.919   3.350  52.413  1.00  0.00    -0.322 N 
ATOM     11  H   UNL     1      25.595   2.962  53.310  1.00  0.00     0.170 HD
BRANCH  10  12
ATOM     12  C   UNL     1      25.040   4.180  51.730  1.00  0.00     0.044 A 
ATOM     13  C   UNL     1      24.284   5.162  52.417  1.00  0.00     0.052 A 
ATOM     14  C   UNL     1      24.789   3.983  50.354  1.00  0.00     0.039 A 
ATOM     15  C   UNL     1      23.404   6.008  51.736  1.00  0.00     0.049 A 
ATOM     16  C   UNL     1      23.909   4.860  49.659  1.00  0.00     0.060 A 
ATOM     17  C   UNL     1      23.206   5.835  50.370  1.00  0.00     0.039 A 
BRANCH  15  18
ATOM     18  N   UNL     1      22.683   7.011  52.401  1.00  0.00    -0.306 N 
ATOM     19  C   UNL     1      22.649   8.381  52.145  1.00  0.00     0.116 A 
ATOM     20  C   UNL     1      21.932   6.865  53.499  1.00  0.00     0.204 A 
ATOM     21  C   UNL     1      21.886   8.969  53.092  1.00  0.00     0.056 A 
ATOM     22  N   UNL     1      21.420   7.999  53.911  1.00  0.00    -0.242 NA
ATOM     23  C   UNL     1      21.536  10.431  53.228  1.00  0.00     0.068 C 
ENDBRANCH  15  18
BRANCH  16  24
ATOM     24  C   UNL     1      23.708   4.666  48.191  1.00  0.00     0.416 C 
ATOM     25  F   UNL     1      24.647   5.233  47.408  1.00  0.00    -0.166 F 
ATOM     26  F   UNL     1      23.812   3.384  47.860  1.00  0.00    -0.166 F 
ATOM     27  F   UNL     1      22.558   5.219  47.753  1.00  0.00    -0.166 F 
ENDBRANCH  16  24
ENDBRANCH  10  12
ENDBRANCH   1   8
BRANCH   6  28
ATOM     28  N   UNL     1      30.613  -0.390  52.371  1.00  0.00    -0.324 N 
ATOM     29  H   UNL     1      30.526  -1.278  51.857  1.00  0.00     0.170 HD
BRANCH  28  30
ATOM     30  C   UNL     1      31.860   0.220  52.516  1.00  0.00     0.227 A 
ATOM     31  N   UNL     1      32.229   1.171  53.365  1.00  0.00    -0.221 NA
ATOM     32  N   UNL     1      32.676  -0.277  51.550  1.00  0.00    -0.213 NA
ATOM     33  C   UNL     1      33.495   1.618  53.262  1.00  0.00     0.117 A 
ATOM     34  C   UNL     1      33.915   0.221  51.467  1.00  0.00     0.077 A 
ATOM     35  C   UNL     1      34.343   1.177  52.319  1.00  0.00     0.049 A 
BRANCH  34  36
ATOM     36  C   UNL     1      34.779  -0.380  50.417  1.00  0.00     0.019 A 
ATOM     37  C   UNL     1      34.362  -1.492  49.669  1.00  0.00     0.013 A 
ATOM     38  C   UNL     1      36.058   0.148  50.155  1.00  0.00     0.121 A 
ATOM     39  C   UNL     1      35.221  -2.027  48.718  1.00  0.00     0.021 A 
ATOM     40  N   UNL     1      36.895  -0.368  49.245  1.00  0.00    -0.264 NA
ATOM     41  C   UNL     1      36.460  -1.416  48.526  1.00  0.00     0.111 A 
ENDBRANCH  34  36
ENDBRANCH  28  30
ENDBRANCH   6  28
TORSDOF 7
ENDMDL
MODEL 3
REMARK VINA RESULT:   -13.893      2.289      3.581
REMARK INTER + INTRA:         -17.224
REMARK INTER:                 -15.981
REMARK INTRA:                  -1.242
REMARK CONF_INDEPENDENT:        2.088
REMARK UNBOUND:                -1.242
REMARK SMILES Cc1cn(-c2cc(NC(=O)c3ccc(C)c(Nc4nccc(-c5cccnc5)n4)c3)cc(C(F)(F)F)c2)cn1
REMARK SMILES IDX 11 1 12 2 13 3 14 4 15 5 16 6 30 7 9 8 10 9 8 10 7 12 6 13
REMARK SMILES IDX 31 14 5 15 32 16 37 17 4 18 3 19 38 20 2 21 39 22 1 23 33 24
REMARK SMILES IDX 34 25 35 26 36 27 17 28 18 30 19 31 29 32 20 33 22 34 21 35
REMARK SMILES IDX 23 36 24 37 28 38 25 39 27 40 26 41
REMARK H PARENT 8 11 17 29
ROOT
ATOM      1  C   UNL     1      28.303   1.620  53.507  1.00  0.00     0.042 A 
ATOM      2  C   UNL     1      27.968   0.959  54.699  1.00  0.00     0.014 A 
ATOM      3  C   UNL     1      28.621  -0.210  55.090  1.00  0.00     0.006 A 
ATOM      4  C   UNL     1      29.568  -0.811  54.276  1.00  0.00    -0.027 A 
ATOM      5  C   UNL     1      30.267  -2.091  54.712  1.00  0.00     0.046 C 
ATOM      6  C   UNL     1      29.831  -0.216  53.043  1.00  0.00     0.045 A 
ATOM      7  C   UNL     1      29.183   0.972  52.680  1.00  0.00     0.040 A 
ENDROOT
BRANCH   1   8
ATOM      8  C   UNL     1      27.582   2.784  52.957  1.00  0.00     0.255 C 
ATOM      9  O   UNL     1      28.025   3.228  51.925  1.00  0.00    -0.269 OA
ATOM     10  N   UNL     1      26.391   3.058  53.510  1.00  0.00    -0.322 N 
ATOM     11  H   UNL     1      26.106   2.482  54.314  1.00  0.00     0.170 HD
BRANCH  10  12
ATOM     12  C   UNL     1      25.509   4.049  53.099  1.00  0.00     0.044 A 
ATOM     13  C   UNL     1      25.130   4.167  51.739  1.00  0.00     0.052 A 
ATOM     14  C   UNL     1      25.064   5.036  54.006  1.00  0.00     0.039 A 
ATOM     15  C   UNL     1      24.235   5.154  51.317  1.00  0.00     0.049 A 
ATOM     16  C   UNL     1      24.135   6.028  53.578  1.00  0.00     0.060 A 
ATOM     17  C   UNL     1      23.765   6.089  52.233  1.00  0.00     0.039 A 
BRANCH  15  18
ATOM     18  N   UNL     1      23.822   5.252  49.980  1.00  0.00    -0.306 N 
ATOM     19  C   UNL     1      22.590   5.662  49.472  1.00  0.00     0.116 A 
ATOM     20  C   UNL     1      24.513   4.876  48.897  1.00  0.00     0.204 A 
ATOM     21  C   UNL     1      22.616   5.514  48.130  1.00  0.00     0.056 A 
ATOM     22  N   UNL     1      23.839   5.052  47.787  1.00  0.00    -0.242 NA
ATOM     23  C   UNL     1      21.527   5.842  47.137  1.00  0.00     0.068 C 
ENDBRANCH  15  18
BRANCH  16  24
ATOM     24  C   UNL     1      23.634   7.023  54.574  1.00  0.00     0.416 C 
ATOM     25  F   UNL     1      24.501   8.009  54.879  1.00  0.00    -0.166 F 
ATOM     26  F   UNL     1      22.603   7.705  54.089  1.00  0.00    -0.166 F 
ATOM     27  F   UNL     1      23.365   6.461  55.770  1.00  0.00    -0.166 F 
ENDBRANCH  16  24
ENDBRANCH  10  12
ENDBRANCH   1   8
BRANCH   6  28
ATOM     28  N   UNL     1      30.896  -0.710  52.278  1.00  0.00    -0.324 N 
ATOM     29  H   UNL     1      30.758  -1.521  51.659  1.00  0.00     0.170 HD
BRANCH  28  30
ATOM     30  C   UNL     1      32.146  -0.093  52.361  1.00  0.00     0.227 A 
ATOM     31  N   UNL     1      32.534   0.898  53.154  1.00  0.00    -0.221 NA
ATOM     32  N   UNL     1      32.938  -0.635  51.401  1.00  0.00    -0.213 NA
ATOM     33  C   UNL     1      33.796   1.340  52.998  1.00  0.00     0.117 A 
ATOM     34  C   UNL     1      34.174  -0.142  51.262  1.00  0.00     0.077 A 
ATOM     35  C   UNL     1      34.621   0.854  52.057  1.00  0.00     0.049 A 
BRANCH  34  36
ATOM     36  C   UNL     1      35.012  -0.792  50.222  1.00  0.00     0.019 A 
ATOM     37  C   UNL     1      36.359  -0.441  50.036  1.00  0.00     0.013 A 
ATOM     38  C   UNL     1      34.466  -1.778  49.376  1.00  0.00     0.121 A 
ATOM     39  C   UNL     1      37.087  -1.064  49.031  1.00  0.00     0.021 A 
ATOM     40  N   UNL     1      35.160  -2.377  48.400  1.00  0.00    -0.264 NA
ATOM     41  C   UNL     1      36.453  -2.040  48.262  1.00  0.00     0.111 A 
ENDBRANCH  34  36
ENDBRANCH  28  30
ENDBRANCH   6  28
TORSDOF 7
ENDMDL
MODEL 4
REMARK VINA RESULT:   -12.469      1.521      3.623
REMARK INTER + INTRA:         -16.187
REMARK INTER:                 -14.557
REMARK INTRA:                  -1.630
REMARK CONF_INDEPENDENT:        2.088
REMARK UNBOUND:                -1.630
REMARK SMILES Cc1cn(-c2cc(NC(=O)c3ccc(C)c(Nc4nccc(-c5cccnc5)n4)c3)cc(C(F)(F)F)c2)cn1
REMARK SMILES IDX 11 1 12 2 13 3 14 4 15 5 16 6 30 7 9 8 10 9 8 10 7 12 6 13
REMARK SMILES IDX 31 14 5 15 32 16 37 17 4 18 3 19 38 20 2 21 39 22 1 23 33 24
REMARK SMILES IDX 34 25 35 26 36 27 17 28 18 30 19 31 29 32 20 33 22 34 21 35
REMARK SMILES IDX 23 36 24 37 28 38 25 39 27 40 26 41
REMARK H PARENT 8 11 17 29
ROOT
ATOM      1  C   UNL     1      27.748   1.724  52.961  1.00  0.00     0.042 A 
ATOM      2  C   UNL     1      27.444   1.087  54.173  1.00  0.00     0.014 A 
ATOM      3  C   UNL     1      28.146  -0.042  54.596  1.00  0.00     0.006 A 
ATOM      4  C   UNL     1      29.115  -0.628  53.797  1.00  0.00    -0.027 A 
ATOM      5  C   UNL     1      29.867  -1.864  54.268  1.00  0.00     0.046 C 
ATOM      6  C   UNL     1      29.349  -0.060  52.546  1.00  0.00     0.045 A 
ATOM      7  C   UNL     1      28.652   1.088  52.150  1.00  0.00     0.040 A 
ENDROOT
BRANCH   1   8
ATOM      8  C   UNL     1      26.978   2.841  52.378  1.00  0.00     0.255 C 
ATOM      9  O   UNL     1      27.315   3.182  51.271  1.00  0.00    -0.269 OA
ATOM     10  N   UNL     1      25.849   3.179  53.020  1.00  0.00    -0.322 N 
ATOM     11  H   UNL     1      25.644   2.682  53.899  1.00  0.00     0.170 HD
BRANCH  10  12
ATOM     12  C   UNL     1      24.932   4.137  52.608  1.00  0.00     0.044 A 
ATOM     13  C   UNL     1      24.074   4.772  53.540  1.00  0.00     0.052 A 
ATOM     14  C   UNL     1      24.750   4.413  51.235  1.00  0.00     0.039 A 
ATOM     15  C   UNL     1      23.155   5.744  53.137  1.00  0.00     0.049 A 
ATOM     16  C   UNL     1      23.829   5.420  50.828  1.00  0.00     0.060 A 
ATOM     17  C   UNL     1      23.024   6.043  51.784  1.00  0.00     0.039 A 
BRANCH  15  18
ATOM     18  N   UNL     1      22.331   6.408  54.058  1.00  0.00    -0.306 N 
ATOM     19  C   UNL     1      22.001   6.041  55.361  1.00  0.00     0.116 A 
ATOM     20  C   UNL     1      21.605   7.510  53.834  1.00  0.00     0.204 A 
ATOM     21  C   UNL     1      21.109   6.937  55.839  1.00  0.00     0.056 A 
ATOM     22  N   UNL     1      20.900   7.866  54.880  1.00  0.00    -0.242 NA
ATOM     23  C   UNL     1      20.472   6.974  57.207  1.00  0.00     0.068 C 
ENDBRANCH  15  18
BRANCH  16  24
ATOM     24  C   UNL     1      23.700   5.735  49.373  1.00  0.00     0.416 C 
ATOM     25  F   UNL     1      23.112   4.774  48.633  1.00  0.00    -0.166 F 
ATOM     26  F   UNL     1      22.889   6.768  49.178  1.00  0.00    -0.166 F 
ATOM     27  F   UNL     1      24.899   5.900  48.776  1.00  0.00    -0.166 F 
ENDBRANCH  16  24
ENDBRANCH  10  12
ENDBRANCH   1   8
BRANCH   6  28
ATOM     28  N   UNL     1      30.431  -0.533  51.791  1.00  0.00    -0.324 N 
ATOM     29  H   UNL     1      30.299  -1.304  51.122  1.00  0.00     0.170 HD
BRANCH  28  30
ATOM     30  C   UNL     1      31.689   0.050  51.954  1.00  0.00     0.227 A 
ATOM     31  N   UNL     1      32.815  -0.203  51.300  1.00  0.00    -0.221 NA
ATOM     32  N   UNL     1      31.609   0.917  52.997  1.00  0.00    -0.213 NA
ATOM     33  C   UNL     1      33.909   0.479  51.690  1.00  0.00     0.117 A 
ATOM     34  C   UNL     1      32.729   1.547  53.369  1.00  0.00     0.077 A 
ATOM     35  C   UNL     1      33.896   1.336  52.722  1.00  0.00     0.049 A 
BRANCH  34  36
ATOM     36  C   UNL     1      32.582   2.510  54.491  1.00  0.00     0.019 A 
ATOM     37  C   UNL     1      31.502   2.437  55.385  1.00  0.00     0.013 A 
ATOM     38  C   UNL     1      33.525   3.539  54.679  1.00  0.00     0.121 A 
ATOM     39  C   UNL     1      31.402   3.380  56.401  1.00  0.00     0.021 A 
ATOM     40  N   UNL     1      33.430   4.455  55.651  1.00  0.00    -0.264 NA
ATOM     41  C   UNL     1      32.401   4.347  56.507  1.00  0.00     0.111 A 
ENDBRANCH  34  36
ENDBRANCH  28  30
ENDBRANCH   6  28
TORSDOF 7
ENDMDL
MODEL 5
REMARK VINA RESULT:   -11.950      1.323      2.006
REMARK INTER + INTRA:         -15.567
REMARK INTER:                 -14.039
REMARK INTRA:                  -1.528
REMARK CONF_INDEPENDENT:        2.088
REMARK UNBOUND:                -1.528
REMARK SMILES Cc1cn(-c2cc(NC(=O)c3ccc(C)c(Nc4nccc(-c5cccnc5)n4)c3)cc(C(F)(F)F)c2)cn1
REMARK SMILES IDX 11 1 12 2 13 3 14 4 15 5 16 6 30 7 9 8 10 9 8 10 7 12 6 13
REMARK SMILES IDX 31 14 5 15 32 16 37 17 4 18 3 19 38 20 2 21 39 22 1 23 33 24
REMARK SMILES IDX 34 25 35 26 36 27 17 28 18 30 19 31 29 32 20 33 22 34 21 35
REMARK SMILES IDX 23 36 24 37 28 38 25 39 27 40 26 41
REMARK H PARENT 8 11 17 29
ROOT
ATOM      1  C   UNL     1      28.265   1.709  53.240  1.00  0.00     0.042 A 
ATOM      2  C   UNL     1      27.836   0.393  53.467  1.00  0.00     0.014 A 
ATOM      3  C   UNL     1      28.676  -0.555  54.055  1.00  0.00     0.006 A 
ATOM      4  C   UNL     1      29.994  -0.255  54.361  1.00  0.00    -0.027 A 
ATOM      5  C   UNL     1      30.900  -1.300  54.995  1.00  0.00     0.046 C 
ATOM      6  C   UNL     1      30.457   1.021  54.043  1.00  0.00     0.045 A 
ATOM      7  C   UNL     1      29.591   1.965  53.476  1.00  0.00     0.040 A 
ENDROOT
BRANCH   1   8
ATOM      8  C   UNL     1      27.492   2.735  52.512  1.00  0.00     0.255 C 
ATOM      9  O   UNL     1      27.923   3.034  51.426  1.00  0.00    -0.269 OA
ATOM     10  N   UNL     1      26.283   3.030  53.013  1.00  0.00    -0.322 N 
ATOM     11  H   UNL     1      26.019   2.572  53.897  1.00  0.00     0.170 HD
BRANCH  10  12
ATOM     12  C   UNL     1      25.357   3.898  52.450  1.00  0.00     0.044 A 
ATOM     13  C   UNL     1      24.445   4.616  53.263  1.00  0.00     0.052 A 
ATOM     14  C   UNL     1      25.223   3.993  51.047  1.00  0.00     0.039 A 
ATOM     15  C   UNL     1      23.515   5.499  52.706  1.00  0.00     0.049 A 
ATOM     16  C   UNL     1      24.290   4.910  50.483  1.00  0.00     0.060 A 
ATOM     17  C   UNL     1      23.430   5.621  51.323  1.00  0.00     0.039 A 
BRANCH  15  18
ATOM     18  N   UNL     1      22.636   6.245  53.504  1.00  0.00    -0.306 N 
ATOM     19  C   UNL     1      21.704   7.207  53.118  1.00  0.00     0.116 A 
ATOM     20  C   UNL     1      22.577   6.251  54.841  1.00  0.00     0.204 A 
ATOM     21  C   UNL     1      21.143   7.723  54.233  1.00  0.00     0.056 A 
ATOM     22  N   UNL     1      21.680   7.089  55.300  1.00  0.00    -0.242 NA
ATOM     23  C   UNL     1      20.069   8.779  54.329  1.00  0.00     0.068 C 
ENDBRANCH  15  18
BRANCH  16  24
ATOM     24  C   UNL     1      24.211   5.035  48.996  1.00  0.00     0.416 C 
ATOM     25  F   UNL     1      24.761   4.014  48.309  1.00  0.00    -0.166 F 
ATOM     26  F   UNL     1      22.951   4.999  48.580  1.00  0.00    -0.166 F 
ATOM     27  F   UNL     1      24.875   6.115  48.536  1.00  0.00    -0.166 F 
ENDBRANCH  16  24
ENDBRANCH  10  12
ENDBRANCH   1   8
BRANCH   6  28
ATOM     28  N   UNL     1      31.730   1.398  54.489  1.00  0.00    -0.324 N 
ATOM     29  H   UNL     1      31.838   1.917  55.372  1.00  0.00     0.170 HD
BRANCH  28  30
ATOM     30  C   UNL     1      32.852   1.065  53.727  1.00  0.00     0.227 A 
ATOM     31  N   UNL     1      34.122   1.389  53.930  1.00  0.00    -0.221 NA
ATOM     32  N   UNL     1      32.420   0.381  52.636  1.00  0.00    -0.213 NA
ATOM     33  C   UNL     1      35.009   0.970  53.007  1.00  0.00     0.117 A 
ATOM     34  C   UNL     1      33.334   0.014  51.731  1.00  0.00     0.077 A 
ATOM     35  C   UNL     1      34.642   0.304  51.901  1.00  0.00     0.049 A 
BRANCH  34  36
ATOM     36  C   UNL     1      32.816  -0.762  50.574  1.00  0.00     0.019 A 
ATOM     37  C   UNL     1      31.439  -0.896  50.335  1.00  0.00     0.013 A 
ATOM     38  C   UNL     1      33.704  -1.402  49.687  1.00  0.00     0.121 A 
ATOM     39  C   UNL     1      31.012  -1.654  49.252  1.00  0.00     0.021 A 
ATOM     40  N   UNL     1      33.298  -2.141  48.646  1.00  0.00    -0.264 NA
ATOM     41  C   UNL     1      31.976  -2.231  48.426  1.00  0.00     0.111 A 
ENDBRANCH  34  36
ENDBRANCH  28  30
ENDBRANCH   6  28
TORSDOF 7
ENDMDL
MODEL 6
REMARK VINA RESULT:   -11.565      3.743     11.763
REMARK INTER + INTRA:         -14.812
REMARK INTER:                 -13.653
REMARK INTRA:                  -1.159
REMARK CONF_INDEPENDENT:        2.088
REMARK UNBOUND:                -1.159
REMARK SMILES Cc1cn(-c2cc(NC(=O)c3ccc(C)c(Nc4nccc(-c5cccnc5)n4)c3)cc(C(F)(F)F)c2)cn1
REMARK SMILES IDX 11 1 12 2 13 3 14 4 15 5 16 6 30 7 9 8 10 9 8 10 7 12 6 13
REMARK SMILES IDX 31 14 5 15 32 16 37 17 4 18 3 19 38 20 2 21 39 22 1 23 33 24
REMARK SMILES IDX 34 25 35 26 36 27 17 28 18 30 19 31 29 32 20 33 22 34 21 35
REMARK SMILES IDX 23 36 24 37 28 38 25 39 27 40 26 41
REMARK H PARENT 8 11 17 29
ROOT
ATOM      1  C   UNL     1      25.911   3.830  51.907  1.00  0.00     0.042 A 
ATOM      2  C   UNL     1      25.275   4.258  50.732  1.00  0.00     0.014 A 
ATOM      3  C   UNL     1      24.151   5.084  50.774  1.00  0.00     0.006 A 
ATOM      4  C   UNL     1      23.570   5.447  51.978  1.00  0.00    -0.027 A 
ATOM      5  C   UNL     1      22.340   6.342  52.008  1.00  0.00     0.046 C 
ATOM      6  C   UNL     1      24.136   4.940  53.147  1.00  0.00     0.045 A 
ATOM      7  C   UNL     1      25.279   4.133  53.085  1.00  0.00     0.040 A 
ENDROOT
BRANCH   1   8
ATOM      8  C   UNL     1      27.022   2.859  51.959  1.00  0.00     0.255 C 
ATOM      9  O   UNL     1      27.746   2.847  50.994  1.00  0.00    -0.269 OA
ATOM     10  N   UNL     1      27.253   2.288  53.151  1.00  0.00    -0.322 N 
ATOM     11  H   UNL     1      26.601   2.519  53.914  1.00  0.00     0.170 HD
BRANCH  10  12
ATOM     12  C   UNL     1      28.290   1.413  53.449  1.00  0.00     0.044 A 
ATOM     13  C   UNL     1      29.603   1.653  52.974  1.00  0.00     0.052 A 
ATOM     14  C   UNL     1      28.035   0.203  54.130  1.00  0.00     0.039 A 
ATOM     15  C   UNL     1      30.655   0.785  53.277  1.00  0.00     0.049 A 
ATOM     16  C   UNL     1      29.112  -0.670  54.457  1.00  0.00     0.060 A 
ATOM     17  C   UNL     1      30.397  -0.379  53.995  1.00  0.00     0.039 A 
BRANCH  15  18
ATOM     18  N   UNL     1      31.967   1.035  52.847  1.00  0.00    -0.306 N 
ATOM     19  C   UNL     1      32.621   0.564  51.711  1.00  0.00     0.116 A 
ATOM     20  C   UNL     1      32.908   1.723  53.505  1.00  0.00     0.204 A 
ATOM     21  C   UNL     1      33.900   0.995  51.751  1.00  0.00     0.056 A 
ATOM     22  N   UNL     1      34.051   1.745  52.865  1.00  0.00    -0.242 NA
ATOM     23  C   UNL     1      34.993   0.758  50.736  1.00  0.00     0.068 C 
ENDBRANCH  15  18
BRANCH  16  24
ATOM     24  C   UNL     1      28.822  -1.914  55.232  1.00  0.00     0.416 C 
ATOM     25  F   UNL     1      27.932  -2.748  54.658  1.00  0.00    -0.166 F 
ATOM     26  F   UNL     1      29.901  -2.683  55.320  1.00  0.00    -0.166 F 
ATOM     27  F   UNL     1      28.275  -1.653  56.437  1.00  0.00    -0.166 F 
ENDBRANCH  16  24
ENDBRANCH  10  12
ENDBRANCH   1   8
BRANCH   6  28
ATOM     28  N   UNL     1      23.669   5.421  54.377  1.00  0.00    -0.324 N 
ATOM     29  H   UNL     1      22.719   5.188  54.698  1.00  0.00     0.170 HD
BRANCH  28  30
ATOM     30  C   UNL     1      24.502   6.219  55.164  1.00  0.00     0.227 A 
ATOM     31  N   UNL     1      25.786   6.504  54.991  1.00  0.00    -0.221 NA
ATOM     32  N   UNL     1      23.784   6.626  56.242  1.00  0.00    -0.213 NA
ATOM     33  C   UNL     1      26.368   7.271  55.933  1.00  0.00     0.117 A 
ATOM     34  C   UNL     1      24.413   7.360  57.167  1.00  0.00     0.077 A 
ATOM     35  C   UNL     1      25.715   7.692  57.028  1.00  0.00     0.049 A 
BRANCH  34  36
ATOM     36  C   UNL     1      23.575   7.810  58.309  1.00  0.00     0.019 A 
ATOM     37  C   UNL     1      24.015   8.805  59.197  1.00  0.00     0.013 A 
ATOM     38  C   UNL     1      22.311   7.232  58.540  1.00  0.00     0.121 A 
ATOM     39  C   UNL     1      23.200   9.167  60.261  1.00  0.00     0.021 A 
ATOM     40  N   UNL     1      21.525   7.572  59.569  1.00  0.00    -0.264 NA
ATOM     41  C   UNL     1      21.959   8.544  60.388  1.00  0.00     0.111 A 
ENDBRANCH  34  36
ENDBRANCH  28  30
ENDBRANCH   6  28
TORSDOF 7
ENDMDL
MODEL 7
REMARK VINA RESULT:   -11.536      4.136     11.172
REMARK INTER + INTRA:         -14.808
REMARK INTER:                 -13.624
REMARK INTRA:                  -1.184
REMARK CONF_INDEPENDENT:        2.088
REMARK UNBOUND:                -1.184
REMARK SMILES Cc1cn(-c2cc(NC(=O)c3ccc(C)c(Nc4nccc(-c5cccnc5)n4)c3)cc(C(F)(F)F)c2)cn1
REMARK SMILES IDX 11 1 12 2 13 3 14 4 15 5 16 6 30 7 9 8 10 9 8 10 7 12 6 13
REMARK SMILES IDX 31 14 5 15 32 16 37 17 4 18 3 19 38 20 2 21 39 22 1 23 33 24
REMARK SMILES IDX 34 25 35 26 36 27 17 28 18 30 19 31 29 32 20 33 22 34 21 35
REMARK SMILES IDX 23 36 24 37 28 38 25 39 27 40 26 41
REMARK H PARENT 8 11 17 29
ROOT
ATOM      1  C   UNL     1      25.831   3.902  52.060  1.00  0.00     0.042 A 
ATOM      2  C   UNL     1      25.244   4.423  50.897  1.00  0.00     0.014 A 
ATOM      3  C   UNL     1      24.135   5.267  50.958  1.00  0.00     0.006 A 
ATOM      4  C   UNL     1      23.518   5.557  52.165  1.00  0.00    -0.027 A 
ATOM      5  C   UNL     1      22.304   6.474  52.216  1.00  0.00     0.046 C 
ATOM      6  C   UNL     1      24.034   4.959  53.314  1.00  0.00     0.045 A 
ATOM      7  C   UNL     1      25.163   4.135  53.234  1.00  0.00     0.040 A 
ENDROOT
BRANCH   1   8
ATOM      8  C   UNL     1      26.921   2.907  52.082  1.00  0.00     0.255 C 
ATOM      9  O   UNL     1      27.603   2.864  51.087  1.00  0.00    -0.269 OA
ATOM     10  N   UNL     1      27.190   2.350  53.272  1.00  0.00    -0.322 N 
ATOM     11  H   UNL     1      26.576   2.607  54.058  1.00  0.00     0.170 HD
BRANCH  10  12
ATOM     12  C   UNL     1      28.219   1.457  53.541  1.00  0.00     0.044 A 
ATOM     13  C   UNL     1      29.528   1.686  53.049  1.00  0.00     0.052 A 
ATOM     14  C   UNL     1      27.958   0.240  54.208  1.00  0.00     0.039 A 
ATOM     15  C   UNL     1      30.573   0.799  53.323  1.00  0.00     0.049 A 
ATOM     16  C   UNL     1      29.028  -0.652  54.506  1.00  0.00     0.060 A 
ATOM     17  C   UNL     1      30.310  -0.372  54.027  1.00  0.00     0.039 A 
BRANCH  15  18
ATOM     18  N   UNL     1      31.881   1.038  52.877  1.00  0.00    -0.306 N 
ATOM     19  C   UNL     1      32.518   0.557  51.734  1.00  0.00     0.116 A 
ATOM     20  C   UNL     1      32.835   1.721  53.520  1.00  0.00     0.204 A 
ATOM     21  C   UNL     1      33.801   0.979  51.757  1.00  0.00     0.056 A 
ATOM     22  N   UNL     1      33.970   1.733  52.866  1.00  0.00    -0.242 NA
ATOM     23  C   UNL     1      34.879   0.731  50.730  1.00  0.00     0.068 C 
ENDBRANCH  15  18
BRANCH  16  24
ATOM     24  C   UNL     1      28.733  -1.904  55.266  1.00  0.00     0.416 C 
ATOM     25  F   UNL     1      27.773  -2.684  54.729  1.00  0.00    -0.166 F 
ATOM     26  F   UNL     1      29.781  -2.720  55.267  1.00  0.00    -0.166 F 
ATOM     27  F   UNL     1      28.274  -1.653  56.509  1.00  0.00    -0.166 F 
ENDBRANCH  16  24
ENDBRANCH  10  12
ENDBRANCH   1   8
BRANCH   6  28
ATOM     28  N   UNL     1      23.532   5.363  54.558  1.00  0.00    -0.324 N 
ATOM     29  H   UNL     1      22.820   4.796  55.040  1.00  0.00     0.170 HD
BRANCH  28  30
ATOM     30  C   UNL     1      24.005   6.541  55.140  1.00  0.00     0.227 A 
ATOM     31  N   UNL     1      24.032   7.767  54.633  1.00  0.00    -0.221 NA
ATOM     32  N   UNL     1      24.539   6.219  56.346  1.00  0.00    -0.213 NA
ATOM     33  C   UNL     1      24.589   8.726  55.397  1.00  0.00     0.117 A 
ATOM     34  C   UNL     1      25.110   7.200  57.055  1.00  0.00     0.077 A 
ATOM     35  C   UNL     1      25.146   8.467  56.591  1.00  0.00     0.049 A 
BRANCH  34  36
ATOM     36  C   UNL     1      25.647   6.803  58.383  1.00  0.00     0.019 A 
ATOM     37  C   UNL     1      24.798   6.459  59.447  1.00  0.00     0.013 A 
ATOM     38  C   UNL     1      27.037   6.777  58.614  1.00  0.00     0.121 A 
ATOM     39  C   UNL     1      25.356   6.121  60.673  1.00  0.00     0.021 A 
ATOM     40  N   UNL     1      27.580   6.459  59.796  1.00  0.00    -0.264 NA
ATOM     41  C   UNL     1      26.746   6.110  60.788  1.00  0.00     0.111 A 
ENDBRANCH  34  36
ENDBRANCH  28  30
ENDBRANCH   6  28
TORSDOF 7
ENDMDL
MODEL 8
REMARK VINA RESULT:   -11.484      2.068      3.050
REMARK INTER + INTRA:         -14.868
REMARK INTER:                 -13.572
REMARK INTRA:                  -1.297
REMARK CONF_INDEPENDENT:        2.088
REMARK UNBOUND:                -1.297
REMARK SMILES Cc1cn(-c2cc(NC(=O)c3ccc(C)c(Nc4nccc(-c5cccnc5)n4)c3)cc(C(F)(F)F)c2)cn1
REMARK SMILES IDX 11 1 12 2 13 3 14 4 15 5 16 6 30 7 9 8 10 9 8 10 7 12 6 13
REMARK SMILES IDX 31 14 5 15 32 16 37 17 4 18 3 19 38 20 2 21 39 22 1 23 33 24
REMARK SMILES IDX 34 25 35 26 36 27 17 28 18 30 19 31 29 32 20 33 22 34 21 35
REMARK SMILES IDX 23 36 24 37 28 38 25 39 27 40 26 41
REMARK H PARENT 8 11 17 29
ROOT
ATOM      1  C   UNL     1      26.991   2.410  52.371  1.00  0.00     0.042 A 
ATOM      2  C   UNL     1      27.150   1.043  52.100  1.00  0.00     0.014 A 
ATOM      3  C   UNL     1      27.921   0.223  52.926  1.00  0.00     0.006 A 
ATOM      4  C   UNL     1      28.626   0.744  53.999  1.00  0.00    -0.027 A 
ATOM      5  C   UNL     1      29.469  -0.160  54.887  1.00  0.00     0.046 C 
ATOM      6  C   UNL     1      28.555   2.120  54.212  1.00  0.00     0.045 A 
ATOM      7  C   UNL     1      27.756   2.921  53.386  1.00  0.00     0.040 A 
ENDROOT
BRANCH   1   8
ATOM      8  C   UNL     1      26.302   3.370  51.486  1.00  0.00     0.255 C 
ATOM      9  O   UNL     1      26.502   3.222  50.305  1.00  0.00    -0.269 OA
ATOM     10  N   UNL     1      25.351   4.124  52.057  1.00  0.00    -0.322 N 
ATOM     11  H   UNL     1      25.222   4.023  53.074  1.00  0.00     0.170 HD
BRANCH  10  12
ATOM     12  C   UNL     1      24.525   5.029  51.403  1.00  0.00     0.044 A 
ATOM     13  C   UNL     1      23.834   6.035  52.123  1.00  0.00     0.052 A 
ATOM     14  C   UNL     1      24.260   4.891  50.023  1.00  0.00     0.039 A 
ATOM     15  C   UNL     1      23.008   6.956  51.472  1.00  0.00     0.049 A 
ATOM     16  C   UNL     1      23.436   5.844  49.358  1.00  0.00     0.060 A 
ATOM     17  C   UNL     1      22.798   6.839  50.102  1.00  0.00     0.039 A 
BRANCH  15  18
ATOM     18  N   UNL     1      22.353   7.982  52.170  1.00  0.00    -0.306 N 
ATOM     19  C   UNL     1      21.517   7.890  53.282  1.00  0.00     0.116 A 
ATOM     20  C   UNL     1      22.325   9.280  51.846  1.00  0.00     0.204 A 
ATOM     21  C   UNL     1      21.046   9.125  53.559  1.00  0.00     0.056 A 
ATOM     22  N   UNL     1      21.588   9.986  52.670  1.00  0.00    -0.242 NA
ATOM     23  C   UNL     1      20.123   9.536  54.680  1.00  0.00     0.068 C 
ENDBRANCH  15  18
BRANCH  16  24
ATOM     24  C   UNL     1      23.221   5.709  47.886  1.00  0.00     0.416 C 
ATOM     25  F   UNL     1      22.759   6.818  47.273  1.00  0.00    -0.166 F 
ATOM     26  F   UNL     1      24.370   5.504  47.253  1.00  0.00    -0.166 F 
ATOM     27  F   UNL     1      22.294   4.776  47.586  1.00  0.00    -0.166 F 
ENDBRANCH  16  24
ENDBRANCH  10  12
ENDBRANCH   1   8
BRANCH   6  28
ATOM     28  N   UNL     1      29.125   2.644  55.379  1.00  0.00    -0.324 N 
ATOM     29  H   UNL     1      28.542   2.810  56.212  1.00  0.00     0.170 HD
BRANCH  28  30
ATOM     30  C   UNL     1      30.489   2.940  55.405  1.00  0.00     0.227 A 
ATOM     31  N   UNL     1      31.127   3.868  56.107  1.00  0.00    -0.221 NA
ATOM     32  N   UNL     1      31.101   2.142  54.492  1.00  0.00    -0.213 NA
ATOM     33  C   UNL     1      32.455   3.972  55.909  1.00  0.00     0.117 A 
ATOM     34  C   UNL     1      32.416   2.304  54.307  1.00  0.00     0.077 A 
ATOM     35  C   UNL     1      33.113   3.222  55.011  1.00  0.00     0.049 A 
BRANCH  34  36
ATOM     36  C   UNL     1      33.045   1.383  53.324  1.00  0.00     0.019 A 
ATOM     37  C   UNL     1      32.300   0.789  52.292  1.00  0.00     0.013 A 
ATOM     38  C   UNL     1      34.415   1.068  53.413  1.00  0.00     0.121 A 
ATOM     39  C   UNL     1      32.935  -0.083  51.417  1.00  0.00     0.021 A 
ATOM     40  N   UNL     1      35.030   0.222  52.577  1.00  0.00    -0.264 NA
ATOM     41  C   UNL     1      34.300  -0.312  51.585  1.00  0.00     0.111 A 
ENDBRANCH  34  36
ENDBRANCH  28  30
ENDBRANCH   6  28
TORSDOF 7
ENDMDL
MODEL 9
REMARK VINA RESULT:   -11.200      1.655      2.460
REMARK INTER + INTRA:         -14.426
REMARK INTER:                 -13.289
REMARK INTRA:                  -1.137
REMARK CONF_INDEPENDENT:        2.088
REMARK UNBOUND:                -1.137
REMARK SMILES Cc1cn(-c2cc(NC(=O)c3ccc(C)c(Nc4nccc(-c5cccnc5)n4)c3)cc(C(F)(F)F)c2)cn1
REMARK SMILES IDX 11 1 12 2 13 3 14 4 15 5 16 6 30 7 9 8 10 9 8 10 7 12 6 13
REMARK SMILES IDX 31 14 5 15 32 16 37 17 4 18 3 19 38 20 2 21 39 22 1 23 33 24
REMARK SMILES IDX 34 25 35 26 36 27 17 28 18 30 19 31 29 32 20 33 22 34 21 35
REMARK SMILES IDX 23 36 24 37 28 38 25 39 27 40 26 41
REMARK H PARENT 8 11 17 29
ROOT
ATOM      1  C   UNL     1      27.058   2.332  52.454  1.00  0.00     0.042 A 
ATOM      2  C   UNL     1      27.216   1.203  51.636  1.00  0.00     0.014 A 
ATOM      3  C   UNL     1      28.165   0.222  51.927  1.00  0.00     0.006 A 
ATOM      4  C   UNL     1      29.045   0.366  52.987  1.00  0.00    -0.027 A 
ATOM      5  C   UNL     1      30.081  -0.709  53.288  1.00  0.00     0.046 C 
ATOM      6  C   UNL     1      28.962   1.535  53.741  1.00  0.00     0.045 A 
ATOM      7  C   UNL     1      27.986   2.496  53.449  1.00  0.00     0.040 A 
ENDROOT
BRANCH   1   8
ATOM      8  C   UNL     1      26.172   3.474  52.153  1.00  0.00     0.255 C 
ATOM      9  O   UNL     1      26.020   3.717  50.980  1.00  0.00    -0.269 OA
ATOM     10  N   UNL     1      25.448   3.948  53.178  1.00  0.00    -0.322 N 
ATOM     11  H   UNL     1      25.614   3.525  54.102  1.00  0.00     0.170 HD
BRANCH  10  12
ATOM     12  C   UNL     1      24.495   4.956  53.107  1.00  0.00     0.044 A 
ATOM     13  C   UNL     1      23.762   5.345  54.255  1.00  0.00     0.052 A 
ATOM     14  C   UNL     1      24.150   5.531  51.864  1.00  0.00     0.039 A 
ATOM     15  C   UNL     1      22.808   6.365  54.195  1.00  0.00     0.049 A 
ATOM     16  C   UNL     1      23.194   6.585  51.810  1.00  0.00     0.060 A 
ATOM     17  C   UNL     1      22.516   6.959  52.972  1.00  0.00     0.039 A 
BRANCH  15  18
ATOM     18  N   UNL     1      22.107   6.787  55.335  1.00  0.00    -0.306 N 
ATOM     19  C   UNL     1      22.570   6.942  56.640  1.00  0.00     0.116 A 
ATOM     20  C   UNL     1      20.797   7.046  55.420  1.00  0.00     0.204 A 
ATOM     21  C   UNL     1      21.522   7.285  57.422  1.00  0.00     0.056 A 
ATOM     22  N   UNL     1      20.428   7.377  56.633  1.00  0.00    -0.242 NA
ATOM     23  C   UNL     1      21.525   7.580  58.902  1.00  0.00     0.068 C 
ENDBRANCH  15  18
BRANCH  16  24
ATOM     24  C   UNL     1      22.892   7.217  50.490  1.00  0.00     0.416 C 
ATOM     25  F   UNL     1      23.887   7.148  49.584  1.00  0.00    -0.166 F 
ATOM     26  F   UNL     1      21.909   6.577  49.868  1.00  0.00    -0.166 F 
ATOM     27  F   UNL     1      22.657   8.542  50.597  1.00  0.00    -0.166 F 
ENDBRANCH  16  24
ENDBRANCH  10  12
ENDBRANCH   1   8
BRANCH   6  28
ATOM     28  N   UNL     1      29.728   1.630  54.911  1.00  0.00    -0.324 N 
ATOM     29  H   UNL     1      29.338   1.322  55.813  1.00  0.00     0.170 HD
BRANCH  28  30
ATOM     30  C   UNL     1      31.024   2.145  54.844  1.00  0.00     0.227 A 
ATOM     31  N   UNL     1      31.560   3.142  55.536  1.00  0.00    -0.221 NA
ATOM     32  N   UNL     1      31.677   1.487  53.852  1.00  0.00    -0.213 NA
ATOM     33  C   UNL     1      32.833   3.468  55.240  1.00  0.00     0.117 A 
ATOM     34  C   UNL     1      32.929   1.868  53.573  1.00  0.00     0.077 A 
ATOM     35  C   UNL     1      33.525   2.866  54.261  1.00  0.00     0.049 A 
BRANCH  34  36
ATOM     36  C   UNL     1      33.613   1.095  52.504  1.00  0.00     0.019 A 
ATOM     37  C   UNL     1      34.432   1.722  51.551  1.00  0.00     0.013 A 
ATOM     38  C   UNL     1      33.442  -0.300  52.409  1.00  0.00     0.121 A 
ATOM     39  C   UNL     1      35.026   0.952  50.559  1.00  0.00     0.021 A 
ATOM     40  N   UNL     1      34.005  -1.047  51.450  1.00  0.00    -0.264 NA
ATOM     41  C   UNL     1      34.804  -0.425  50.568  1.00  0.00     0.111 A 
ENDBRANCH  34  36
ENDBRANCH  28  30
ENDBRANCH   6  28
TORSDOF 7
ENDMDL
MODEL 10
REMARK VINA RESULT:   -11.068      4.525      7.958
REMARK INTER + INTRA:         -14.184
REMARK INTER:                 -13.156
REMARK INTRA:                  -1.028
REMARK CONF_INDEPENDENT:        2.088
REMARK UNBOUND:                -1.028
REMARK SMILES Cc1cn(-c2cc(NC(=O)c3ccc(C)c(Nc4nccc(-c5cccnc5)n4)c3)cc(C(F)(F)F)c2)cn1
REMARK SMILES IDX 11 1 12 2 13 3 14 4 15 5 16 6 30 7 9 8 10 9 8 10 7 12 6 13
REMARK SMILES IDX 31 14 5 15 32 16 37 17 4 18 3 19 38 20 2 21 39 22 1 23 33 24
REMARK SMILES IDX 34 25 35 26 36 27 17 28 18 30 19 31 29 32 20 33 22 34 21 35
REMARK SMILES IDX 23 36 24 37 28 38 25 39 27 40 26 41
REMARK H PARENT 8 11 17 29
ROOT
ATOM      1  C   UNL     1      33.854  -0.542  50.737  1.00  0.00     0.042 A 
ATOM      2  C   UNL     1      33.864  -1.789  50.095  1.00  0.00     0.014 A 
ATOM      3  C   UNL     1      34.881  -2.142  49.206  1.00  0.00     0.006 A 
ATOM      4  C   UNL     1      35.876  -1.242  48.860  1.00  0.00    -0.027 A 
ATOM      5  C   UNL     1      36.975  -1.637  47.884  1.00  0.00     0.046 C 
ATOM      6  C   UNL     1      35.814   0.035  49.415  1.00  0.00     0.045 A 
ATOM      7  C   UNL     1      34.799   0.361  50.324  1.00  0.00     0.040 A 
ENDROOT
BRANCH   1   8
ATOM      8  C   UNL     1      32.758  -0.040  51.588  1.00  0.00     0.255 C 
ATOM      9  O   UNL     1      32.878   1.099  51.970  1.00  0.00    -0.269 OA
ATOM     10  N   UNL     1      31.651  -0.796  51.634  1.00  0.00    -0.322 N 
ATOM     11  H   UNL     1      31.677  -1.694  51.131  1.00  0.00     0.170 HD
BRANCH  10  12
ATOM     12  C   UNL     1      30.473  -0.480  52.300  1.00  0.00     0.044 A 
ATOM     13  C   UNL     1      29.690   0.633  51.903  1.00  0.00     0.052 A 
ATOM     14  C   UNL     1      30.093  -1.186  53.462  1.00  0.00     0.039 A 
ATOM     15  C   UNL     1      28.499   0.953  52.560  1.00  0.00     0.049 A 
ATOM     16  C   UNL     1      28.868  -0.872  54.117  1.00  0.00     0.060 A 
ATOM     17  C   UNL     1      28.111   0.215  53.673  1.00  0.00     0.039 A 
BRANCH  15  18
ATOM     18  N   UNL     1      27.695   2.027  52.149  1.00  0.00    -0.306 N 
ATOM     19  C   UNL     1      26.694   2.692  52.854  1.00  0.00     0.116 A 
ATOM     20  C   UNL     1      27.664   2.584  50.932  1.00  0.00     0.204 A 
ATOM     21  C   UNL     1      26.131   3.603  52.030  1.00  0.00     0.056 A 
ATOM     22  N   UNL     1      26.773   3.541  50.843  1.00  0.00    -0.242 NA
ATOM     23  C   UNL     1      25.020   4.576  52.343  1.00  0.00     0.068 C 
ENDBRANCH  15  18
BRANCH  16  24
ATOM     24  C   UNL     1      28.460  -1.675  55.309  1.00  0.00     0.416 C 
ATOM     25  F   UNL     1      27.525  -2.616  55.069  1.00  0.00    -0.166 F 
ATOM     26  F   UNL     1      29.474  -2.404  55.762  1.00  0.00    -0.166 F 
ATOM     27  F   UNL     1      27.900  -0.915  56.272  1.00  0.00    -0.166 F 
ENDBRANCH  16  24
ENDBRANCH  10  12
ENDBRANCH   1   8
BRANCH   6  28
ATOM     28  N   UNL     1      36.893   0.905  49.209  1.00  0.00    -0.324 N 
ATOM     29  H   UNL     1      36.729   1.869  48.887  1.00  0.00     0.170 HD
BRANCH  28  30
ATOM     30  C   UNL     1      38.193   0.454  49.445  1.00  0.00     0.227 A 
ATOM     31  N   UNL     1      38.625  -0.393  50.371  1.00  0.00    -0.221 NA
ATOM     32  N   UNL     1      39.018   1.106  48.586  1.00  0.00    -0.213 NA
ATOM     33  C   UNL     1      39.951  -0.625  50.407  1.00  0.00     0.117 A 
ATOM     34  C   UNL     1      40.331   0.868  48.682  1.00  0.00     0.077 A 
ATOM     35  C   UNL     1      40.818   0.000  49.595  1.00  0.00     0.049 A 
BRANCH  34  36
ATOM     36  C   UNL     1      41.186   1.579  47.697  1.00  0.00     0.019 A 
ATOM     37  C   UNL     1      40.650   2.144  46.529  1.00  0.00     0.013 A 
ATOM     38  C   UNL     1      42.575   1.692  47.905  1.00  0.00     0.121 A 
ATOM     39  C   UNL     1      41.501   2.775  45.631  1.00  0.00     0.021 A 
ATOM     40  N   UNL     1      43.402   2.293  47.040  1.00  0.00    -0.264 NA
ATOM     41  C   UNL     1      42.858   2.846  45.944  1.00  0.00     0.111 A 
ENDBRANCH  34  36
ENDBRANCH  28  30
ENDBRANCH   6  28
TORSDOF 7
ENDMDL
MODEL 11
REMARK VINA RESULT:   -10.946      2.724      5.021
REMARK INTER + INTRA:         -14.673
REMARK INTER:                 -13.034
REMARK INTRA:                  -1.639
REMARK CONF_INDEPENDENT:        2.088
REMARK UNBOUND:                -1.639
REMARK SMILES Cc1cn(-c2cc(NC(=O)c3ccc(C)c(Nc4nccc(-c5cccnc5)n4)c3)cc(C(F)(F)F)c2)cn1
REMARK SMILES IDX 11 1 12 2 13 3 14 4 15 5 16 6 30 7 9 8 10 9 8 10 7 12 6 13
REMARK SMILES IDX 31 14 5 15 32 16 37 17 4 18 3 19 38 20 2 21 39 22 1 23 33 24
REMARK SMILES IDX 34 25 35 26 36 27 17 28 18 30 19 31 29 32 20 33 22 34 21 35
REMARK SMILES IDX 23 36 24 37 28 38 25 39 27 40 26 41
REMARK H PARENT 8 11 17 29
ROOT
ATOM      1  C   UNL     1      27.716   1.729  53.275  1.00  0.00     0.042 A 
ATOM      2  C   UNL     1      27.416   0.957  54.407  1.00  0.00     0.014 A 
ATOM      3  C   UNL     1      28.091  -0.235  54.674  1.00  0.00     0.006 A 
ATOM      4  C   UNL     1      29.027  -0.744  53.788  1.00  0.00    -0.027 A 
ATOM      5  C   UNL     1      29.751  -2.049  54.089  1.00  0.00     0.046 C 
ATOM      6  C   UNL     1      29.256  -0.034  52.610  1.00  0.00     0.045 A 
ATOM      7  C   UNL     1      28.585   1.173  52.373  1.00  0.00     0.040 A 
ENDROOT
BRANCH   1   8
ATOM      8  C   UNL     1      26.969   2.929  52.850  1.00  0.00     0.255 C 
ATOM      9  O   UNL     1      27.311   3.407  51.795  1.00  0.00    -0.269 OA
ATOM     10  N   UNL     1      25.850   3.203  53.537  1.00  0.00    -0.322 N 
ATOM     11  H   UNL     1      25.636   2.599  54.343  1.00  0.00     0.170 HD
BRANCH  10  12
ATOM     12  C   UNL     1      24.953   4.227  53.260  1.00  0.00     0.044 A 
ATOM     13  C   UNL     1      24.539   4.493  51.931  1.00  0.00     0.052 A 
ATOM     14  C   UNL     1      24.526   5.104  54.282  1.00  0.00     0.039 A 
ATOM     15  C   UNL     1      23.629   5.514  51.644  1.00  0.00     0.049 A 
ATOM     16  C   UNL     1      23.583   6.130  53.991  1.00  0.00     0.060 A 
ATOM     17  C   UNL     1      23.178   6.338  52.670  1.00  0.00     0.039 A 
BRANCH  15  18
ATOM     18  N   UNL     1      23.181   5.758  50.337  1.00  0.00    -0.306 N 
ATOM     19  C   UNL     1      23.928   6.020  49.190  1.00  0.00     0.116 A 
ATOM     20  C   UNL     1      21.911   5.880  49.935  1.00  0.00     0.204 A 
ATOM     21  C   UNL     1      23.071   6.277  48.178  1.00  0.00     0.056 A 
ATOM     22  N   UNL     1      21.813   6.152  48.657  1.00  0.00    -0.242 NA
ATOM     23  C   UNL     1      23.401   6.596  46.740  1.00  0.00     0.068 C 
ENDBRANCH  15  18
BRANCH  16  24
ATOM     24  C   UNL     1      23.102   7.005  55.103  1.00  0.00     0.416 C 
ATOM     25  F   UNL     1      22.383   6.376  56.053  1.00  0.00    -0.166 F 
ATOM     26  F   UNL     1      24.122   7.487  55.805  1.00  0.00    -0.166 F 
ATOM     27  F   UNL     1      22.270   7.974  54.670  1.00  0.00    -0.166 F 
ENDBRANCH  16  24
ENDBRANCH  10  12
ENDBRANCH   1   8
BRANCH   6  28
ATOM     28  N   UNL     1      30.309  -0.440  51.781  1.00  0.00    -0.324 N 
ATOM     29  H   UNL     1      30.146  -1.131  51.035  1.00  0.00     0.170 HD
BRANCH  28  30
ATOM     30  C   UNL     1      31.582   0.100  51.973  1.00  0.00     0.227 A 
ATOM     31  N   UNL     1      32.716  -0.198  51.351  1.00  0.00    -0.221 NA
ATOM     32  N   UNL     1      31.505   0.977  53.007  1.00  0.00    -0.213 NA
ATOM     33  C   UNL     1      33.822   0.448  51.766  1.00  0.00     0.117 A 
ATOM     34  C   UNL     1      32.637   1.570  53.404  1.00  0.00     0.077 A 
ATOM     35  C   UNL     1      33.813   1.313  52.791  1.00  0.00     0.049 A 
BRANCH  34  36
ATOM     36  C   UNL     1      32.494   2.547  54.516  1.00  0.00     0.019 A 
ATOM     37  C   UNL     1      33.406   3.601  54.690  1.00  0.00     0.013 A 
ATOM     38  C   UNL     1      31.438   2.429  55.440  1.00  0.00     0.121 A 
ATOM     39  C   UNL     1      33.237   4.468  55.762  1.00  0.00     0.021 A 
ATOM     40  N   UNL     1      31.275   3.257  56.480  1.00  0.00    -0.264 NA
ATOM     41  C   UNL     1      32.146   4.272  56.608  1.00  0.00     0.111 A 
ENDBRANCH  34  36
ENDBRANCH  28  30
ENDBRANCH   6  28
TORSDOF 7
ENDMDL
MODEL 12
REMARK VINA RESULT:   -10.935      3.627     12.039
REMARK INTER + INTRA:         -14.269
REMARK INTER:                 -13.023
REMARK INTRA:                  -1.246
REMARK CONF_INDEPENDENT:        2.088
REMARK UNBOUND:                -1.246
REMARK SMILES Cc1cn(-c2cc(NC(=O)c3ccc(C)c(Nc4nccc(-c5cccnc5)n4)c3)cc(C(F)(F)F)c2)cn1
REMARK SMILES IDX 11 1 12 2 13 3 14 4 15 5 16 6 30 7 9 8 10 9 8 10 7 12 6 13
REMARK SMILES IDX 31 14 5 15 32 16 37 17 4 18 3 19 38 20 2 21 39 22 1 23 33 24
REMARK SMILES IDX 34 25 35 26 36 27 17 28 18 30 19 31 29 32 20 33 22 34 21 35
REMARK SMILES IDX 23 36 24 37 28 38 25 39 27 40 26 41
REMARK H PARENT 8 11 17 29
ROOT
ATOM      1  C   UNL     1      26.277   3.412  51.485  1.00  0.00     0.042 A 
ATOM      2  C   UNL     1      25.626   3.666  50.268  1.00  0.00     0.014 A 
ATOM      3  C   UNL     1      24.357   4.247  50.230  1.00  0.00     0.006 A 
ATOM      4  C   UNL     1      23.657   4.520  51.394  1.00  0.00    -0.027 A 
ATOM      5  C   UNL     1      22.271   5.147  51.337  1.00  0.00     0.046 C 
ATOM      6  C   UNL     1      24.255   4.174  52.604  1.00  0.00     0.045 A 
ATOM      7  C   UNL     1      25.539   3.614  52.622  1.00  0.00     0.040 A 
ENDROOT
BRANCH   1   8
ATOM      8  C   UNL     1      27.556   2.688  51.622  1.00  0.00     0.255 C 
ATOM      9  O   UNL     1      28.510   3.220  51.108  1.00  0.00    -0.269 OA
ATOM     10  N   UNL     1      27.571   1.673  52.499  1.00  0.00    -0.322 N 
ATOM     11  H   UNL     1      26.678   1.437  52.955  1.00  0.00     0.170 HD
BRANCH  10  12
ATOM     12  C   UNL     1      28.679   0.912  52.848  1.00  0.00     0.044 A 
ATOM     13  C   UNL     1      29.954   1.190  52.296  1.00  0.00     0.052 A 
ATOM     14  C   UNL     1      28.537  -0.230  53.665  1.00  0.00     0.039 A 
ATOM     15  C   UNL     1      31.077   0.436  52.648  1.00  0.00     0.049 A 
ATOM     16  C   UNL     1      29.686  -0.984  54.041  1.00  0.00     0.060 A 
ATOM     17  C   UNL     1      30.930  -0.657  53.497  1.00  0.00     0.039 A 
BRANCH  15  18
ATOM     18  N   UNL     1      32.352   0.729  52.140  1.00  0.00    -0.306 N 
ATOM     19  C   UNL     1      32.969   0.243  50.989  1.00  0.00     0.116 A 
ATOM     20  C   UNL     1      33.292   1.483  52.722  1.00  0.00     0.204 A 
ATOM     21  C   UNL     1      34.227   0.733  50.945  1.00  0.00     0.056 A 
ATOM     22  N   UNL     1      34.399   1.533  52.021  1.00  0.00    -0.242 NA
ATOM     23  C   UNL     1      35.276   0.507  49.883  1.00  0.00     0.068 C 
ENDBRANCH  15  18
BRANCH  16  24
ATOM     24  C   UNL     1      29.515  -2.152  54.956  1.00  0.00     0.416 C 
ATOM     25  F   UNL     1      29.002  -3.257  54.380  1.00  0.00    -0.166 F 
ATOM     26  F   UNL     1      30.689  -2.591  55.394  1.00  0.00    -0.166 F 
ATOM     27  F   UNL     1      28.653  -1.894  55.962  1.00  0.00    -0.166 F 
ENDBRANCH  16  24
ENDBRANCH  10  12
ENDBRANCH   1   8
BRANCH   6  28
ATOM     28  N   UNL     1      23.641   4.586  53.794  1.00  0.00    -0.324 N 
ATOM     29  H   UNL     1      23.004   3.952  54.297  1.00  0.00     0.170 HD
BRANCH  28  30
ATOM     30  C   UNL     1      23.898   5.865  54.292  1.00  0.00     0.227 A 
ATOM     31  N   UNL     1      24.928   6.285  55.014  1.00  0.00    -0.221 NA
ATOM     32  N   UNL     1      22.836   6.651  53.977  1.00  0.00    -0.213 NA
ATOM     33  C   UNL     1      24.908   7.573  55.406  1.00  0.00     0.117 A 
ATOM     34  C   UNL     1      22.846   7.915  54.416  1.00  0.00     0.077 A 
ATOM     35  C   UNL     1      23.881   8.395  55.139  1.00  0.00     0.049 A 
BRANCH  34  36
ATOM     36  C   UNL     1      21.679   8.743  54.015  1.00  0.00     0.019 A 
ATOM     37  C   UNL     1      20.365   8.258  54.112  1.00  0.00     0.013 A 
ATOM     38  C   UNL     1      21.865  10.044  53.507  1.00  0.00     0.121 A 
ATOM     39  C   UNL     1      19.314   9.068  53.699  1.00  0.00     0.021 A 
ATOM     40  N   UNL     1      20.858  10.826  53.100  1.00  0.00    -0.264 NA
ATOM     41  C   UNL     1      19.609  10.347  53.228  1.00  0.00     0.111 A 
ENDBRANCH  34  36
ENDBRANCH  28  30
ENDBRANCH   6  28
TORSDOF 7
ENDMDL
MODEL 13
REMARK VINA RESULT:   -10.929      4.546      7.527
REMARK INTER + INTRA:         -13.827
REMARK INTER:                 -13.017
REMARK INTRA:                  -0.810
REMARK CONF_INDEPENDENT:        2.088
REMARK UNBOUND:                -0.810
REMARK SMILES Cc1cn(-c2cc(NC(=O)c3ccc(C)c(Nc4nccc(-c5cccnc5)n4)c3)cc(C(F)(F)F)c2)cn1
REMARK SMILES IDX 11 1 12 2 13 3 14 4 15 5 16 6 30 7 9 8 10 9 8 10 7 12 6 13
REMARK SMILES IDX 31 14 5 15 32 16 37 17 4 18 3 19 38 20 2 21 39 22 1 23 33 24
REMARK SMILES IDX 34 25 35 26 36 27 17 28 18 30 19 31 29 32 20 33 22 34 21 35
REMARK SMILES IDX 23 36 24 37 28 38 25 39 27 40 26 41
REMARK H PARENT 8 11 17 29
ROOT
ATOM      1  C   UNL     1      23.046   5.972  52.879  1.00  0.00     0.042 A 
ATOM      2  C   UNL     1      22.832   5.801  51.503  1.00  0.00     0.014 A 
ATOM      3  C   UNL     1      23.464   4.782  50.790  1.00  0.00     0.006 A 
ATOM      4  C   UNL     1      24.392   3.950  51.396  1.00  0.00    -0.027 A 
ATOM      5  C   UNL     1      25.079   2.847  50.604  1.00  0.00     0.046 C 
ATOM      6  C   UNL     1      24.687   4.181  52.739  1.00  0.00     0.045 A 
ATOM      7  C   UNL     1      24.023   5.193  53.443  1.00  0.00     0.040 A 
ENDROOT
BRANCH   1   8
ATOM      8  C   UNL     1      22.521   7.095  53.682  1.00  0.00     0.255 C 
ATOM      9  O   UNL     1      23.355   7.832  54.148  1.00  0.00    -0.269 OA
ATOM     10  N   UNL     1      21.201   7.317  53.596  1.00  0.00    -0.322 N 
ATOM     11  H   UNL     1      20.651   6.651  53.036  1.00  0.00     0.170 HD
BRANCH  10  12
ATOM     12  C   UNL     1      20.509   8.362  54.196  1.00  0.00     0.044 A 
ATOM     13  C   UNL     1      19.469   9.034  53.508  1.00  0.00     0.052 A 
ATOM     14  C   UNL     1      20.907   8.856  55.457  1.00  0.00     0.039 A 
ATOM     15  C   UNL     1      18.760  10.079  54.106  1.00  0.00     0.049 A 
ATOM     16  C   UNL     1      20.170   9.907  56.073  1.00  0.00     0.060 A 
ATOM     17  C   UNL     1      19.131  10.522  55.372  1.00  0.00     0.039 A 
BRANCH  15  18
ATOM     18  N   UNL     1      17.700  10.723  53.449  1.00  0.00    -0.306 N 
ATOM     19  C   UNL     1      16.529  11.253  53.988  1.00  0.00     0.116 A 
ATOM     20  C   UNL     1      17.555  10.882  52.129  1.00  0.00     0.204 A 
ATOM     21  C   UNL     1      15.760  11.698  52.970  1.00  0.00     0.056 A 
ATOM     22  N   UNL     1      16.434  11.487  51.818  1.00  0.00    -0.242 NA
ATOM     23  C   UNL     1      14.410  12.368  53.050  1.00  0.00     0.068 C 
ENDBRANCH  15  18
BRANCH  16  24
ATOM     24  C   UNL     1      20.576  10.371  57.435  1.00  0.00     0.416 C 
ATOM     25  F   UNL     1      20.556   9.420  58.390  1.00  0.00    -0.166 F 
ATOM     26  F   UNL     1      21.849  10.749  57.450  1.00  0.00    -0.166 F 
ATOM     27  F   UNL     1      19.750  11.321  57.921  1.00  0.00    -0.166 F 
ENDBRANCH  16  24
ENDBRANCH  10  12
ENDBRANCH   1   8
BRANCH   6  28
ATOM     28  N   UNL     1      25.495   3.256  53.412  1.00  0.00    -0.324 N 
ATOM     29  H   UNL     1      25.159   2.804  54.275  1.00  0.00     0.170 HD
BRANCH  28  30
ATOM     30  C   UNL     1      26.759   2.951  52.905  1.00  0.00     0.227 A 
ATOM     31  N   UNL     1      27.465   3.597  51.985  1.00  0.00    -0.221 NA
ATOM     32  N   UNL     1      27.158   1.782  53.468  1.00  0.00    -0.213 NA
ATOM     33  C   UNL     1      28.651   3.058  51.643  1.00  0.00     0.117 A 
ATOM     34  C   UNL     1      28.329   1.269  53.073  1.00  0.00     0.077 A 
ATOM     35  C   UNL     1      29.092   1.898  52.153  1.00  0.00     0.049 A 
BRANCH  34  36
ATOM     36  C   UNL     1      28.737   0.007  53.744  1.00  0.00     0.019 A 
ATOM     37  C   UNL     1      28.049  -0.486  54.864  1.00  0.00     0.013 A 
ATOM     38  C   UNL     1      29.846  -0.726  53.277  1.00  0.00     0.121 A 
ATOM     39  C   UNL     1      28.491  -1.657  55.466  1.00  0.00     0.021 A 
ATOM     40  N   UNL     1      30.281  -1.851  53.857  1.00  0.00    -0.264 NA
ATOM     41  C   UNL     1      29.589  -2.313  54.911  1.00  0.00     0.111 A 
ENDBRANCH  34  36
ENDBRANCH  28  30
ENDBRANCH   6  28
TORSDOF 7
ENDMDL
MODEL 14
REMARK VINA RESULT:   -10.896      3.668     12.034
REMARK INTER + INTRA:         -14.313
REMARK INTER:                 -12.984
REMARK INTRA:                  -1.329
REMARK CONF_INDEPENDENT:        2.088
REMARK UNBOUND:                -1.329
REMARK SMILES Cc1cn(-c2cc(NC(=O)c3ccc(C)c(Nc4nccc(-c5cccnc5)n4)c3)cc(C(F)(F)F)c2)cn1
REMARK SMILES IDX 11 1 12 2 13 3 14 4 15 5 16 6 30 7 9 8 10 9 8 10 7 12 6 13
REMARK SMILES IDX 31 14 5 15 32 16 37 17 4 18 3 19 38 20 2 21 39 22 1 23 33 24
REMARK SMILES IDX 34 25 35 26 36 27 17 28 18 30 19 31 29 32 20 33 22 34 21 35
REMARK SMILES IDX 23 36 24 37 28 38 25 39 27 40 26 41
REMARK H PARENT 8 11 17 29
ROOT
ATOM      1  C   UNL     1      25.695   3.647  51.941  1.00  0.00     0.042 A 
ATOM      2  C   UNL     1      24.950   3.804  50.762  1.00  0.00     0.014 A 
ATOM      3  C   UNL     1      23.621   4.227  50.793  1.00  0.00     0.006 A 
ATOM      4  C   UNL     1      22.959   4.429  51.994  1.00  0.00    -0.027 A 
ATOM      5  C   UNL     1      21.506   4.883  52.013  1.00  0.00     0.046 C 
ATOM      6  C   UNL     1      23.662   4.175  53.170  1.00  0.00     0.045 A 
ATOM      7  C   UNL     1      25.003   3.775  53.118  1.00  0.00     0.040 A 
ENDROOT
BRANCH   1   8
ATOM      8  C   UNL     1      27.058   3.086  52.009  1.00  0.00     0.255 C 
ATOM      9  O   UNL     1      27.595   2.898  50.944  1.00  0.00    -0.269 OA
ATOM     10  N   UNL     1      27.638   3.084  53.219  1.00  0.00    -0.322 N 
ATOM     11  H   UNL     1      27.067   3.410  54.011  1.00  0.00     0.170 HD
BRANCH  10  12
ATOM     12  C   UNL     1      28.938   2.682  53.500  1.00  0.00     0.044 A 
ATOM     13  C   UNL     1      29.580   1.695  52.713  1.00  0.00     0.052 A 
ATOM     14  C   UNL     1      29.604   3.161  54.650  1.00  0.00     0.039 A 
ATOM     15  C   UNL     1      30.891   1.292  52.982  1.00  0.00     0.049 A 
ATOM     16  C   UNL     1      30.947   2.766  54.909  1.00  0.00     0.060 A 
ATOM     17  C   UNL     1      31.554   1.812  54.089  1.00  0.00     0.039 A 
BRANCH  15  18
ATOM     18  N   UNL     1      31.551   0.346  52.183  1.00  0.00    -0.306 N 
ATOM     19  C   UNL     1      31.134  -0.234  50.987  1.00  0.00     0.116 A 
ATOM     20  C   UNL     1      32.703  -0.275  52.463  1.00  0.00     0.204 A 
ATOM     21  C   UNL     1      32.052  -1.154  50.620  1.00  0.00     0.056 A 
ATOM     22  N   UNL     1      33.042  -1.141  51.540  1.00  0.00    -0.242 NA
ATOM     23  C   UNL     1      32.052  -2.028  49.389  1.00  0.00     0.068 C 
ENDBRANCH  15  18
BRANCH  16  24
ATOM     24  C   UNL     1      31.649   3.334  56.100  1.00  0.00     0.416 C 
ATOM     25  F   UNL     1      31.054   4.410  56.652  1.00  0.00    -0.166 F 
ATOM     26  F   UNL     1      31.651   2.472  57.110  1.00  0.00    -0.166 F 
ATOM     27  F   UNL     1      32.887   3.780  55.800  1.00  0.00    -0.166 F 
ENDBRANCH  16  24
ENDBRANCH  10  12
ENDBRANCH   1   8
BRANCH   6  28
ATOM     28  N   UNL     1      23.070   4.526  54.390  1.00  0.00    -0.324 N 
ATOM     29  H   UNL     1      22.496   3.843  54.904  1.00  0.00     0.170 HD
BRANCH  28  30
ATOM     30  C   UNL     1      23.265   5.809  54.904  1.00  0.00     0.227 A 
ATOM     31  N   UNL     1      24.157   6.223  55.795  1.00  0.00    -0.221 NA
ATOM     32  N   UNL     1      22.299   6.611  54.386  1.00  0.00    -0.213 NA
ATOM     33  C   UNL     1      24.099   7.520  56.153  1.00  0.00     0.117 A 
ATOM     34  C   UNL     1      22.261   7.884  54.796  1.00  0.00     0.077 A 
ATOM     35  C   UNL     1      23.159   8.357  55.687  1.00  0.00     0.049 A 
BRANCH  34  36
ATOM     36  C   UNL     1      21.208   8.728  54.174  1.00  0.00     0.019 A 
ATOM     37  C   UNL     1      19.850   8.376  54.236  1.00  0.00     0.013 A 
ATOM     38  C   UNL     1      21.552   9.909  53.486  1.00  0.00     0.121 A 
ATOM     39  C   UNL     1      18.913   9.190  53.614  1.00  0.00     0.021 A 
ATOM     40  N   UNL     1      20.653  10.694  52.878  1.00  0.00    -0.264 NA
ATOM     41  C   UNL     1      19.359  10.346  52.975  1.00  0.00     0.111 A 
ENDBRANCH  34  36
ENDBRANCH  28  30
ENDBRANCH   6  28
TORSDOF 7
ENDMDL
MODEL 15
REMARK VINA RESULT:   -10.891      8.416     15.249
REMARK INTER + INTRA:         -14.295
REMARK INTER:                 -12.979
REMARK INTRA:                  -1.316
REMARK CONF_INDEPENDENT:        2.088
REMARK UNBOUND:                -1.316
REMARK SMILES Cc1cn(-c2cc(NC(=O)c3ccc(C)c(Nc4nccc(-c5cccnc5)n4)c3)cc(C(F)(F)F)c2)cn1
REMARK SMILES IDX 11 1 12 2 13 3 14 4 15 5 16 6 30 7 9 8 10 9 8 10 7 12 6 13
REMARK SMILES IDX 31 14 5 15 32 16 37 17 4 18 3 19 38 20 2 21 39 22 1 23 33 24
REMARK SMILES IDX 34 25 35 26 36 27 17 28 18 30 19 31 29 32 20 33 22 34 21 35
REMARK SMILES IDX 23 36 24 37 28 38 25 39 27 40 26 41
REMARK H PARENT 8 11 17 29
ROOT
ATOM      1  C   UNL     1      35.979  -1.674  49.292  1.00  0.00     0.042 A 
ATOM      2  C   UNL     1      35.199  -2.834  49.179  1.00  0.00     0.014 A 
ATOM      3  C   UNL     1      33.824  -2.812  49.419  1.00  0.00     0.006 A 
ATOM      4  C   UNL     1      33.190  -1.661  49.859  1.00  0.00    -0.027 A 
ATOM      5  C   UNL     1      31.691  -1.653  50.124  1.00  0.00     0.046 C 
ATOM      6  C   UNL     1      33.978  -0.531  50.072  1.00  0.00     0.045 A 
ATOM      7  C   UNL     1      35.352  -0.567  49.801  1.00  0.00     0.040 A 
ENDROOT
BRANCH   1   8
ATOM      8  C   UNL     1      37.450  -1.633  49.181  1.00  0.00     0.255 C 
ATOM      9  O   UNL     1      38.032  -1.213  50.151  1.00  0.00    -0.269 OA
ATOM     10  N   UNL     1      37.984  -2.289  48.139  1.00  0.00    -0.322 N 
ATOM     11  H   UNL     1      37.328  -2.710  47.466  1.00  0.00     0.170 HD
BRANCH  10  12
ATOM     12  C   UNL     1      39.340  -2.452  47.885  1.00  0.00     0.044 A 
ATOM     13  C   UNL     1      39.906  -2.028  46.657  1.00  0.00     0.052 A 
ATOM     14  C   UNL     1      40.161  -3.153  48.795  1.00  0.00     0.039 A 
ATOM     15  C   UNL     1      41.271  -2.179  46.397  1.00  0.00     0.049 A 
ATOM     16  C   UNL     1      41.556  -3.285  48.537  1.00  0.00     0.060 A 
ATOM     17  C   UNL     1      42.078  -2.826  47.327  1.00  0.00     0.039 A 
BRANCH  15  18
ATOM     18  N   UNL     1      41.848  -1.724  45.202  1.00  0.00    -0.306 N 
ATOM     19  C   UNL     1      42.150  -0.420  44.816  1.00  0.00     0.116 A 
ATOM     20  C   UNL     1      42.150  -2.462  44.127  1.00  0.00     0.204 A 
ATOM     21  C   UNL     1      42.615  -0.451  43.548  1.00  0.00     0.056 A 
ATOM     22  N   UNL     1      42.638  -1.742  43.146  1.00  0.00    -0.242 NA
ATOM     23  C   UNL     1      43.089   0.706  42.703  1.00  0.00     0.068 C 
ENDBRANCH  15  18
BRANCH  16  24
ATOM     24  C   UNL     1      42.413  -3.979  49.546  1.00  0.00     0.416 C 
ATOM     25  F   UNL     1      42.643  -3.280  50.675  1.00  0.00    -0.166 F 
ATOM     26  F   UNL     1      41.813  -5.067  50.014  1.00  0.00    -0.166 F 
ATOM     27  F   UNL     1      43.652  -4.234  49.078  1.00  0.00    -0.166 F 
ENDBRANCH  16  24
ENDBRANCH  10  12
ENDBRANCH   1   8
BRANCH   6  28
ATOM     28  N   UNL     1      33.339   0.683  50.358  1.00  0.00    -0.324 N 
ATOM     29  H   UNL     1      32.998   1.283  49.594  1.00  0.00     0.170 HD
BRANCH  28  30
ATOM     30  C   UNL     1      33.169   1.072  51.688  1.00  0.00     0.227 A 
ATOM     31  N   UNL     1      33.880   1.937  52.400  1.00  0.00    -0.221 NA
ATOM     32  N   UNL     1      32.151   0.337  52.205  1.00  0.00    -0.213 NA
ATOM     33  C   UNL     1      33.525   2.097  53.689  1.00  0.00     0.117 A 
ATOM     34  C   UNL     1      31.855   0.508  53.499  1.00  0.00     0.077 A 
ATOM     35  C   UNL     1      32.539   1.389  54.261  1.00  0.00     0.049 A 
BRANCH  34  36
ATOM     36  C   UNL     1      30.712  -0.294  54.008  1.00  0.00     0.019 A 
ATOM     37  C   UNL     1      29.646   0.302  54.701  1.00  0.00     0.013 A 
ATOM     38  C   UNL     1      30.677  -1.689  53.819  1.00  0.00     0.121 A 
ATOM     39  C   UNL     1      28.617  -0.501  55.176  1.00  0.00     0.021 A 
ATOM     40  N   UNL     1      29.691  -2.469  54.281  1.00  0.00    -0.264 NA
ATOM     41  C   UNL     1      28.672  -1.870  54.918  1.00  0.00     0.111 A 
ENDBRANCH  34  36
ENDBRANCH  28  30
ENDBRANCH   6  28
TORSDOF 7
ENDMDL
MODEL 16
REMARK VINA RESULT:   -10.874      3.908     11.734
REMARK INTER + INTRA:         -14.071
REMARK INTER:                 -12.962
REMARK INTRA:                  -1.109
REMARK CONF_INDEPENDENT:        2.088
REMARK UNBOUND:                -1.109
REMARK SMILES Cc1cn(-c2cc(NC(=O)c3ccc(C)c(Nc4nccc(-c5cccnc5)n4)c3)cc(C(F)(F)F)c2)cn1
REMARK SMILES IDX 11 1 12 2 13 3 14 4 15 5 16 6 30 7 9 8 10 9 8 10 7 12 6 13
REMARK SMILES IDX 31 14 5 15 32 16 37 17 4 18 3 19 38 20 2 21 39 22 1 23 33 24
REMARK SMILES IDX 34 25 35 26 36 27 17 28 18 30 19 31 29 32 20 33 22 34 21 35
REMARK SMILES IDX 23 36 24 37 28 38 25 39 27 40 26 41
REMARK H PARENT 8 11 17 29
ROOT
ATOM      1  C   UNL     1      25.745   3.579  51.872  1.00  0.00     0.042 A 
ATOM      2  C   UNL     1      24.885   3.404  50.778  1.00  0.00     0.014 A 
ATOM      3  C   UNL     1      23.547   3.797  50.835  1.00  0.00     0.006 A 
ATOM      4  C   UNL     1      22.994   4.299  52.002  1.00  0.00    -0.027 A 
ATOM      5  C   UNL     1      21.532   4.716  52.052  1.00  0.00     0.046 C 
ATOM      6  C   UNL     1      23.818   4.379  53.124  1.00  0.00     0.045 A 
ATOM      7  C   UNL     1      25.164   4.003  53.040  1.00  0.00     0.040 A 
ENDROOT
BRANCH   1   8
ATOM      8  C   UNL     1      27.132   3.080  51.943  1.00  0.00     0.255 C 
ATOM      9  O   UNL     1      27.725   3.044  50.893  1.00  0.00    -0.269 OA
ATOM     10  N   UNL     1      27.657   2.963  53.172  1.00  0.00    -0.322 N 
ATOM     11  H   UNL     1      27.035   3.166  53.968  1.00  0.00     0.170 HD
BRANCH  10  12
ATOM     12  C   UNL     1      28.963   2.594  53.471  1.00  0.00     0.044 A 
ATOM     13  C   UNL     1      29.645   1.635  52.683  1.00  0.00     0.052 A 
ATOM     14  C   UNL     1      29.597   3.077  54.636  1.00  0.00     0.039 A 
ATOM     15  C   UNL     1      30.962   1.265  52.969  1.00  0.00     0.049 A 
ATOM     16  C   UNL     1      30.946   2.716  54.913  1.00  0.00     0.060 A 
ATOM     17  C   UNL     1      31.593   1.789  54.092  1.00  0.00     0.039 A 
BRANCH  15  18
ATOM     18  N   UNL     1      31.661   0.347  52.170  1.00  0.00    -0.306 N 
ATOM     19  C   UNL     1      31.249  -0.286  50.998  1.00  0.00     0.116 A 
ATOM     20  C   UNL     1      32.860  -0.189  52.427  1.00  0.00     0.204 A 
ATOM     21  C   UNL     1      32.217  -1.151  50.623  1.00  0.00     0.056 A 
ATOM     22  N   UNL     1      33.230  -1.052  51.512  1.00  0.00    -0.242 NA
ATOM     23  C   UNL     1      32.240  -2.050  49.411  1.00  0.00     0.068 C 
ENDBRANCH  15  18
BRANCH  16  24
ATOM     24  C   UNL     1      31.613   3.290  56.121  1.00  0.00     0.416 C 
ATOM     25  F   UNL     1      31.651   2.473  57.193  1.00  0.00    -0.166 F 
ATOM     26  F   UNL     1      32.903   3.507  55.896  1.00  0.00    -0.166 F 
ATOM     27  F   UNL     1      30.979   4.386  56.585  1.00  0.00    -0.166 F 
ENDBRANCH  16  24
ENDBRANCH  10  12
ENDBRANCH   1   8
BRANCH   6  28
ATOM     28  N   UNL     1      23.330   5.031  54.264  1.00  0.00    -0.324 N 
ATOM     29  H   UNL     1      22.353   4.897  54.561  1.00  0.00     0.170 HD
BRANCH  28  30
ATOM     30  C   UNL     1      24.179   5.864  54.995  1.00  0.00     0.227 A 
ATOM     31  N   UNL     1      25.448   6.173  54.758  1.00  0.00    -0.221 NA
ATOM     32  N   UNL     1      23.501   6.281  56.095  1.00  0.00    -0.213 NA
ATOM     33  C   UNL     1      26.054   6.974  55.656  1.00  0.00     0.117 A 
ATOM     34  C   UNL     1      24.155   7.049  56.974  1.00  0.00     0.077 A 
ATOM     35  C   UNL     1      25.441   7.405  56.770  1.00  0.00     0.049 A 
BRANCH  34  36
ATOM     36  C   UNL     1      23.359   7.507  58.143  1.00  0.00     0.019 A 
ATOM     37  C   UNL     1      22.103   8.114  57.985  1.00  0.00     0.013 A 
ATOM     38  C   UNL     1      23.857   7.355  59.452  1.00  0.00     0.121 A 
ATOM     39  C   UNL     1      21.415   8.545  59.112  1.00  0.00     0.021 A 
ATOM     40  N   UNL     1      23.202   7.776  60.541  1.00  0.00    -0.264 NA
ATOM     41  C   UNL     1      21.992   8.330  60.363  1.00  0.00     0.111 A 
ENDBRANCH  34  36
ENDBRANCH  28  30
ENDBRANCH   6  28
TORSDOF 7
ENDMDL
MODEL 17
REMARK VINA RESULT:   -10.847      3.350      5.413
REMARK INTER + INTRA:         -14.015
REMARK INTER:                 -12.935
REMARK INTRA:                  -1.080
REMARK CONF_INDEPENDENT:        2.088
REMARK UNBOUND:                -1.080
REMARK SMILES Cc1cn(-c2cc(NC(=O)c3ccc(C)c(Nc4nccc(-c5cccnc5)n4)c3)cc(C(F)(F)F)c2)cn1
REMARK SMILES IDX 11 1 12 2 13 3 14 4 15 5 16 6 30 7 9 8 10 9 8 10 7 12 6 13
REMARK SMILES IDX 31 14 5 15 32 16 37 17 4 18 3 19 38 20 2 21 39 22 1 23 33 24
REMARK SMILES IDX 34 25 35 26 36 27 17 28 18 30 19 31 29 32 20 33 22 34 21 35
REMARK SMILES IDX 23 36 24 37 28 38 25 39 27 40 26 41
REMARK H PARENT 8 11 17 29
ROOT
ATOM      1  C   UNL     1      27.658   1.935  52.479  1.00  0.00     0.042 A 
ATOM      2  C   UNL     1      27.919   0.766  51.749  1.00  0.00     0.014 A 
ATOM      3  C   UNL     1      28.884  -0.152  52.166  1.00  0.00     0.006 A 
ATOM      4  C   UNL     1      29.681   0.097  53.273  1.00  0.00    -0.027 A 
ATOM      5  C   UNL     1      30.735  -0.909  53.712  1.00  0.00     0.046 C 
ATOM      6  C   UNL     1      29.497   1.306  53.942  1.00  0.00     0.045 A 
ATOM      7  C   UNL     1      28.506   2.202  53.522  1.00  0.00     0.040 A 
ENDROOT
BRANCH   1   8
ATOM      8  C   UNL     1      26.750   3.015  52.045  1.00  0.00     0.255 C 
ATOM      9  O   UNL     1      26.734   3.233  50.858  1.00  0.00    -0.269 OA
ATOM     10  N   UNL     1      25.873   3.454  52.961  1.00  0.00    -0.322 N 
ATOM     11  H   UNL     1      25.946   3.054  53.907  1.00  0.00     0.170 HD
BRANCH  10  12
ATOM     12  C   UNL     1      24.878   4.399  52.749  1.00  0.00     0.044 A 
ATOM     13  C   UNL     1      24.113   4.905  53.830  1.00  0.00     0.052 A 
ATOM     14  C   UNL     1      24.523   4.788  51.438  1.00  0.00     0.039 A 
ATOM     15  C   UNL     1      23.116   5.863  53.628  1.00  0.00     0.049 A 
ATOM     16  C   UNL     1      23.522   5.781  51.237  1.00  0.00     0.060 A 
ATOM     17  C   UNL     1      22.813   6.275  52.334  1.00  0.00     0.039 A 
BRANCH  15  18
ATOM     18  N   UNL     1      22.382   6.400  54.696  1.00  0.00    -0.306 N 
ATOM     19  C   UNL     1      22.705   6.434  56.051  1.00  0.00     0.116 A 
ATOM     20  C   UNL     1      21.150   6.921  54.640  1.00  0.00     0.204 A 
ATOM     21  C   UNL     1      21.662   6.972  56.721  1.00  0.00     0.056 A 
ATOM     22  N   UNL     1      20.713   7.300  55.816  1.00  0.00    -0.242 NA
ATOM     23  C   UNL     1      21.546   7.234  58.203  1.00  0.00     0.068 C 
ENDBRANCH  15  18
BRANCH  16  24
ATOM     24  C   UNL     1      23.209   6.217  49.843  1.00  0.00     0.416 C 
ATOM     25  F   UNL     1      21.900   6.402  49.584  1.00  0.00    -0.166 F 
ATOM     26  F   UNL     1      23.711   7.422  49.596  1.00  0.00    -0.166 F 
ATOM     27  F   UNL     1      23.585   5.304  48.923  1.00  0.00    -0.166 F 
ENDBRANCH  16  24
ENDBRANCH  10  12
ENDBRANCH   1   8
BRANCH   6  28
ATOM     28  N   UNL     1      30.174   1.507  55.152  1.00  0.00    -0.324 N 
ATOM     29  H   UNL     1      29.891   0.991  55.997  1.00  0.00     0.170 HD
BRANCH  28  30
ATOM     30  C   UNL     1      31.235   2.413  55.204  1.00  0.00     0.227 A 
ATOM     31  N   UNL     1      32.122   2.710  54.263  1.00  0.00    -0.221 NA
ATOM     32  N   UNL     1      31.279   2.924  56.461  1.00  0.00    -0.213 NA
ATOM     33  C   UNL     1      33.080   3.597  54.593  1.00  0.00     0.117 A 
ATOM     34  C   UNL     1      32.269   3.777  56.751  1.00  0.00     0.077 A 
ATOM     35  C   UNL     1      33.185   4.125  55.822  1.00  0.00     0.049 A 
BRANCH  34  36
ATOM     36  C   UNL     1      32.253   4.335  58.128  1.00  0.00     0.019 A 
ATOM     37  C   UNL     1      31.816   5.644  58.386  1.00  0.00     0.013 A 
ATOM     38  C   UNL     1      32.695   3.561  59.219  1.00  0.00     0.121 A 
ATOM     39  C   UNL     1      31.847   6.121  59.691  1.00  0.00     0.021 A 
ATOM     40  N   UNL     1      32.734   4.018  60.477  1.00  0.00    -0.264 NA
ATOM     41  C   UNL     1      32.287   5.265  60.699  1.00  0.00     0.111 A 
ENDBRANCH  34  36
ENDBRANCH  28  30
ENDBRANCH   6  28
TORSDOF 7
ENDMDL
MODEL 18
REMARK VINA RESULT:   -10.819      4.642     13.514
REMARK INTER + INTRA:         -14.203
REMARK INTER:                 -12.907
REMARK INTRA:                  -1.296
REMARK CONF_INDEPENDENT:        2.088
REMARK UNBOUND:                -1.296
REMARK SMILES Cc1cn(-c2cc(NC(=O)c3ccc(C)c(Nc4nccc(-c5cccnc5)n4)c3)cc(C(F)(F)F)c2)cn1
REMARK SMILES IDX 11 1 12 2 13 3 14 4 15 5 16 6 30 7 9 8 10 9 8 10 7 12 6 13
REMARK SMILES IDX 31 14 5 15 32 16 37 17 4 18 3 19 38 20 2 21 39 22 1 23 33 24
REMARK SMILES IDX 34 25 35 26 36 27 17 28 18 30 19 31 29 32 20 33 22 34 21 35
REMARK SMILES IDX 23 36 24 37 28 38 25 39 27 40 26 41
REMARK H PARENT 8 11 17 29
ROOT
ATOM      1  C   UNL     1      21.083   7.264  54.289  1.00  0.00     0.042 A 
ATOM      2  C   UNL     1      20.959   7.427  55.677  1.00  0.00     0.014 A 
ATOM      3  C   UNL     1      20.225   8.481  56.222  1.00  0.00     0.006 A 
ATOM      4  C   UNL     1      19.659   9.455  55.416  1.00  0.00    -0.027 A 
ATOM      5  C   UNL     1      18.867  10.603  56.025  1.00  0.00     0.046 C 
ATOM      6  C   UNL     1      19.867   9.356  54.041  1.00  0.00     0.045 A 
ATOM      7  C   UNL     1      20.585   8.277  53.511  1.00  0.00     0.040 A 
ENDROOT
BRANCH   1   8
ATOM      8  C   UNL     1      21.941   6.258  53.631  1.00  0.00     0.255 C 
ATOM      9  O   UNL     1      21.903   5.151  54.110  1.00  0.00    -0.269 OA
ATOM     10  N   UNL     1      22.460   6.609  52.445  1.00  0.00    -0.322 N 
ATOM     11  H   UNL     1      22.277   7.568  52.119  1.00  0.00     0.170 HD
BRANCH  10  12
ATOM     12  C   UNL     1      23.223   5.795  51.616  1.00  0.00     0.044 A 
ATOM     13  C   UNL     1      24.319   5.058  52.128  1.00  0.00     0.052 A 
ATOM     14  C   UNL     1      22.998   5.779  50.222  1.00  0.00     0.039 A 
ATOM     15  C   UNL     1      25.086   4.230  51.304  1.00  0.00     0.049 A 
ATOM     16  C   UNL     1      23.766   4.918  49.387  1.00  0.00     0.060 A 
ATOM     17  C   UNL     1      24.818   4.184  49.939  1.00  0.00     0.039 A 
BRANCH  15  18
ATOM     18  N   UNL     1      26.146   3.464  51.810  1.00  0.00    -0.306 N 
ATOM     19  C   UNL     1      26.513   3.244  53.136  1.00  0.00     0.116 A 
ATOM     20  C   UNL     1      27.099   2.847  51.100  1.00  0.00     0.204 A 
ATOM     21  C   UNL     1      27.649   2.512  53.144  1.00  0.00     0.056 A 
ATOM     22  N   UNL     1      27.981   2.247  51.861  1.00  0.00    -0.242 NA
ATOM     23  C   UNL     1      28.420   2.007  54.339  1.00  0.00     0.068 C 
ENDBRANCH  15  18
BRANCH  16  24
ATOM     24  C   UNL     1      23.466   4.875  47.924  1.00  0.00     0.416 C 
ATOM     25  F   UNL     1      22.535   5.756  47.508  1.00  0.00    -0.166 F 
ATOM     26  F   UNL     1      24.525   5.237  47.209  1.00  0.00    -0.166 F 
ATOM     27  F   UNL     1      22.966   3.684  47.537  1.00  0.00    -0.166 F 
ENDBRANCH  16  24
ENDBRANCH  10  12
ENDBRANCH   1   8
BRANCH   6  28
ATOM     28  N   UNL     1      19.172  10.233  53.197  1.00  0.00    -0.324 N 
ATOM     29  H   UNL     1      19.681  10.798  52.503  1.00  0.00     0.170 HD
BRANCH  28  30
ATOM     30  C   UNL     1      17.784  10.334  53.305  1.00  0.00     0.227 A 
ATOM     31  N   UNL     1      17.031  11.425  53.365  1.00  0.00    -0.221 NA
ATOM     32  N   UNL     1      17.287   9.075  53.423  1.00  0.00    -0.213 NA
ATOM     33  C   UNL     1      15.705  11.238  53.513  1.00  0.00     0.117 A 
ATOM     34  C   UNL     1      15.968   8.942  53.601  1.00  0.00     0.077 A 
ATOM     35  C   UNL     1      15.157  10.020  53.651  1.00  0.00     0.049 A 
BRANCH  34  36
ATOM     36  C   UNL     1      15.470   7.544  53.690  1.00  0.00     0.019 A 
ATOM     37  C   UNL     1      14.580   7.143  54.699  1.00  0.00     0.013 A 
ATOM     38  C   UNL     1      15.895   6.573  52.762  1.00  0.00     0.121 A 
ATOM     39  C   UNL     1      14.168   5.817  54.748  1.00  0.00     0.021 A 
ATOM     40  N   UNL     1      15.508   5.292  52.809  1.00  0.00    -0.264 NA
ATOM     41  C   UNL     1      14.637   4.941  53.770  1.00  0.00     0.111 A 
ENDBRANCH  34  36
ENDBRANCH  28  30
ENDBRANCH   6  28
TORSDOF 7
ENDMDL
MODEL 19
REMARK VINA RESULT:   -10.600      8.255     14.985
REMARK INTER + INTRA:         -14.032
REMARK INTER:                 -12.688
REMARK INTRA:                  -1.344
REMARK CONF_INDEPENDENT:        2.088
REMARK UNBOUND:                -1.344
REMARK SMILES Cc1cn(-c2cc(NC(=O)c3ccc(C)c(Nc4nccc(-c5cccnc5)n4)c3)cc(C(F)(F)F)c2)cn1
REMARK SMILES IDX 11 1 12 2 13 3 14 4 15 5 16 6 30 7 9 8 10 9 8 10 7 12 6 13
REMARK SMILES IDX 31 14 5 15 32 16 37 17 4 18 3 19 38 20 2 21 39 22 1 23 33 24
REMARK SMILES IDX 34 25 35 26 36 27 17 28 18 30 19 31 29 32 20 33 22 34 21 35
REMARK SMILES IDX 23 36 24 37 28 38 25 39 27 40 26 41
REMARK H PARENT 8 11 17 29
ROOT
ATOM      1  C   UNL     1      36.185  -1.617  49.604  1.00  0.00     0.042 A 
ATOM      2  C   UNL     1      35.444  -2.778  49.337  1.00  0.00     0.014 A 
ATOM      3  C   UNL     1      34.050  -2.778  49.386  1.00  0.00     0.006 A 
ATOM      4  C   UNL     1      33.344  -1.653  49.782  1.00  0.00    -0.027 A 
ATOM      5  C   UNL     1      31.823  -1.671  49.838  1.00  0.00     0.046 C 
ATOM      6  C   UNL     1      34.078  -0.527  50.149  1.00  0.00     0.045 A 
ATOM      7  C   UNL     1      35.477  -0.539  50.069  1.00  0.00     0.040 A 
ENDROOT
BRANCH   1   8
ATOM      8  C   UNL     1      37.657  -1.558  49.699  1.00  0.00     0.255 C 
ATOM      9  O   UNL     1      38.091  -0.876  50.596  1.00  0.00    -0.269 OA
ATOM     10  N   UNL     1      38.333  -2.448  48.958  1.00  0.00    -0.322 N 
ATOM     11  H   UNL     1      37.781  -3.054  48.335  1.00  0.00     0.170 HD
BRANCH  10  12
ATOM     12  C   UNL     1      39.711  -2.627  48.955  1.00  0.00     0.044 A 
ATOM     13  C   UNL     1      40.454  -2.576  50.160  1.00  0.00     0.052 A 
ATOM     14  C   UNL     1      40.416  -2.744  47.737  1.00  0.00     0.039 A 
ATOM     15  C   UNL     1      41.839  -2.765  50.168  1.00  0.00     0.049 A 
ATOM     16  C   UNL     1      41.824  -2.959  47.749  1.00  0.00     0.060 A 
ATOM     17  C   UNL     1      42.514  -2.931  48.963  1.00  0.00     0.039 A 
BRANCH  15  18
ATOM     18  N   UNL     1      42.578  -2.758  51.360  1.00  0.00    -0.306 N 
ATOM     19  C   UNL     1      42.653  -3.737  52.350  1.00  0.00     0.116 A 
ATOM     20  C   UNL     1      43.308  -1.747  51.844  1.00  0.00     0.204 A 
ATOM     21  C   UNL     1      43.419  -3.262  53.356  1.00  0.00     0.056 A 
ATOM     22  N   UNL     1      43.846  -2.028  53.006  1.00  0.00    -0.242 NA
ATOM     23  C   UNL     1      43.806  -3.959  54.637  1.00  0.00     0.068 C 
ENDBRANCH  15  18
BRANCH  16  24
ATOM     24  C   UNL     1      42.537  -3.139  46.448  1.00  0.00     0.416 C 
ATOM     25  F   UNL     1      43.820  -2.727  46.439  1.00  0.00    -0.166 F 
ATOM     26  F   UNL     1      42.660  -4.427  46.146  1.00  0.00    -0.166 F 
ATOM     27  F   UNL     1      41.972  -2.428  45.451  1.00  0.00    -0.166 F 
ENDBRANCH  16  24
ENDBRANCH  10  12
ENDBRANCH   1   8
BRANCH   6  28
ATOM     28  N   UNL     1      33.389   0.667  50.395  1.00  0.00    -0.324 N 
ATOM     29  H   UNL     1      33.043   1.239  49.611  1.00  0.00     0.170 HD
BRANCH  28  30
ATOM     30  C   UNL     1      33.173   1.077  51.712  1.00  0.00     0.227 A 
ATOM     31  N   UNL     1      33.843   1.972  52.426  1.00  0.00    -0.221 NA
ATOM     32  N   UNL     1      32.161   0.325  52.217  1.00  0.00    -0.213 NA
ATOM     33  C   UNL     1      33.449   2.148  53.702  1.00  0.00     0.117 A 
ATOM     34  C   UNL     1      31.826   0.513  53.499  1.00  0.00     0.077 A 
ATOM     35  C   UNL     1      32.467   1.425  54.261  1.00  0.00     0.049 A 
BRANCH  34  36
ATOM     36  C   UNL     1      30.690  -0.309  53.993  1.00  0.00     0.019 A 
ATOM     37  C   UNL     1      29.563   0.278  54.590  1.00  0.00     0.013 A 
ATOM     38  C   UNL     1      30.723  -1.713  53.886  1.00  0.00     0.121 A 
ATOM     39  C   UNL     1      28.543  -0.541  55.056  1.00  0.00     0.021 A 
ATOM     40  N   UNL     1      29.746  -2.508  54.341  1.00  0.00    -0.264 NA
ATOM     41  C   UNL     1      28.669  -1.919  54.885  1.00  0.00     0.111 A 
ENDBRANCH  34  36
ENDBRANCH  28  30
ENDBRANCH   6  28
TORSDOF 7
ENDMDL
MODEL 20
REMARK VINA RESULT:   -10.564      5.732     10.788
REMARK INTER + INTRA:         -13.798
REMARK INTER:                 -12.652
REMARK INTRA:                  -1.146
REMARK CONF_INDEPENDENT:        2.088
REMARK UNBOUND:                -1.146
REMARK SMILES Cc1cn(-c2cc(NC(=O)c3ccc(C)c(Nc4nccc(-c5cccnc5)n4)c3)cc(C(F)(F)F)c2)cn1
REMARK SMILES IDX 11 1 12 2 13 3 14 4 15 5 16 6 30 7 9 8 10 9 8 10 7 12 6 13
REMARK SMILES IDX 31 14 5 15 32 16 37 17 4 18 3 19 38 20 2 21 39 22 1 23 33 24
REMARK SMILES IDX 34 25 35 26 36 27 17 28 18 30 19 31 29 32 20 33 22 34 21 35
REMARK SMILES IDX 23 36 24 37 28 38 25 39 27 40 26 41
REMARK H PARENT 8 11 17 29
ROOT
ATOM      1  C   UNL     1      22.280   6.485  55.204  1.00  0.00     0.042 A 
ATOM      2  C   UNL     1      21.513   7.611  54.869  1.00  0.00     0.014 A 
ATOM      3  C   UNL     1      21.064   8.501  55.846  1.00  0.00     0.006 A 
ATOM      4  C   UNL     1      21.286   8.262  57.192  1.00  0.00    -0.027 A 
ATOM      5  C   UNL     1      20.784   9.237  58.247  1.00  0.00     0.046 C 
ATOM      6  C   UNL     1      21.957   7.090  57.538  1.00  0.00     0.045 A 
ATOM      7  C   UNL     1      22.422   6.223  56.541  1.00  0.00     0.040 A 
ENDROOT
BRANCH   1   8
ATOM      8  C   UNL     1      22.686   5.429  54.255  1.00  0.00     0.255 C 
ATOM      9  O   UNL     1      21.782   4.808  53.752  1.00  0.00    -0.269 OA
ATOM     10  N   UNL     1      23.971   5.443  53.869  1.00  0.00    -0.322 N 
ATOM     11  H   UNL     1      24.584   6.142  54.312  1.00  0.00     0.170 HD
BRANCH  10  12
ATOM     12  C   UNL     1      24.549   4.601  52.927  1.00  0.00     0.044 A 
ATOM     13  C   UNL     1      23.811   4.149  51.806  1.00  0.00     0.052 A 
ATOM     14  C   UNL     1      25.846   4.081  53.130  1.00  0.00     0.039 A 
ATOM     15  C   UNL     1      24.387   3.310  50.848  1.00  0.00     0.049 A 
ATOM     16  C   UNL     1      26.439   3.244  52.142  1.00  0.00     0.060 A 
ATOM     17  C   UNL     1      25.686   2.847  51.035  1.00  0.00     0.039 A 
BRANCH  15  18
ATOM     18  N   UNL     1      23.679   2.891  49.712  1.00  0.00    -0.306 N 
ATOM     19  C   UNL     1      22.867   1.770  49.551  1.00  0.00     0.116 A 
ATOM     20  C   UNL     1      23.712   3.448  48.496  1.00  0.00     0.204 A 
ATOM     21  C   UNL     1      22.462   1.723  48.263  1.00  0.00     0.056 A 
ATOM     22  N   UNL     1      22.975   2.800  47.627  1.00  0.00    -0.242 NA
ATOM     23  C   UNL     1      21.556   0.708  47.610  1.00  0.00     0.068 C 
ENDBRANCH  15  18
BRANCH  16  24
ATOM     24  C   UNL     1      27.836   2.757  52.353  1.00  0.00     0.416 C 
ATOM     25  F   UNL     1      28.434   3.211  53.472  1.00  0.00    -0.166 F 
ATOM     26  F   UNL     1      27.858   1.443  52.543  1.00  0.00    -0.166 F 
ATOM     27  F   UNL     1      28.671   3.150  51.370  1.00  0.00    -0.166 F 
ENDBRANCH  16  24
ENDBRANCH  10  12
ENDBRANCH   1   8
BRANCH   6  28
ATOM     28  N   UNL     1      22.335   6.908  58.875  1.00  0.00    -0.324 N 
ATOM     29  H   UNL     1      21.818   6.251  59.476  1.00  0.00     0.170 HD
BRANCH  28  30
ATOM     30  C   UNL     1      23.420   7.623  59.385  1.00  0.00     0.227 A 
ATOM     31  N   UNL     1      23.719   8.907  59.228  1.00  0.00    -0.221 NA
ATOM     32  N   UNL     1      24.218   6.746  60.047  1.00  0.00    -0.213 NA
ATOM     33  C   UNL     1      24.861   9.337  59.798  1.00  0.00     0.117 A 
ATOM     34  C   UNL     1      25.357   7.214  60.569  1.00  0.00     0.077 A 
ATOM     35  C   UNL     1      25.697   8.515  60.451  1.00  0.00     0.049 A 
BRANCH  34  36
ATOM     36  C   UNL     1      26.178   6.222  61.313  1.00  0.00     0.019 A 
ATOM     37  C   UNL     1      26.401   6.339  62.694  1.00  0.00     0.013 A 
ATOM     38  C   UNL     1      26.771   5.135  60.640  1.00  0.00     0.121 A 
ATOM     39  C   UNL     1      27.197   5.396  63.332  1.00  0.00     0.021 A 
ATOM     40  N   UNL     1      27.545   4.228  61.247  1.00  0.00    -0.264 NA
ATOM     41  C   UNL     1      27.721   4.350  62.573  1.00  0.00     0.111 A 
ENDBRANCH  34  36
ENDBRANCH  28  30
ENDBRANCH   6  28
TORSDOF 7
ENDMDL
