MODEL 1
REMARK VINA RESULT:   -15.147      0.000      0.000
REMARK INTER + INTRA:         -18.419
REMARK INTER:                 -17.235
REMARK INTRA:                  -1.184
REMARK CONF_INDEPENDENT:        2.088
REMARK UNBOUND:                -1.184
REMARK SMILES Cc1cn(-c2cc(NC(=O)c3ccc(C)c(Nc4nccc(-c5cccnc5)n4)c3)cc(C(F)(F)F)c2)cn1
REMARK SMILES IDX 11 1 12 2 13 3 14 4 15 5 16 6 30 7 9 8 10 9 8 10 7 12 6 13
REMARK SMILES IDX 31 14 5 15 32 16 37 17 4 18 3 19 38 20 2 21 39 22 1 23 33 24
REMARK SMILES IDX 34 25 35 26 36 27 17 28 18 30 19 31 29 32 20 33 22 34 21 35
REMARK SMILES IDX 23 36 24 37 28 38 25 39 27 40 26 41
REMARK H PARENT 8 11 17 29
ROOT
ATOM      1  C   UNL     1      27.988   1.875  53.231  1.00  0.00     0.042 A 
ATOM      2  C   UNL     1      27.712   1.367  54.510  1.00  0.00     0.014 A 
ATOM      3  C   UNL     1      28.432   0.294  55.036  1.00  0.00     0.006 A 
ATOM      4  C   UNL     1      29.392  -0.365  54.285  1.00  0.00    -0.027 A 
ATOM      5  C   UNL     1      30.165  -1.538  54.870  1.00  0.00     0.046 C 
ATOM      6  C   UNL     1      29.599   0.070  52.977  1.00  0.00     0.045 A 
ATOM      7  C   UNL     1      28.883   1.164  52.475  1.00  0.00     0.040 A 
ENDROOT
BRANCH   1   8
ATOM      8  C   UNL     1      27.196   2.918  52.549  1.00  0.00     0.255 C 
ATOM      9  O   UNL     1      27.552   3.189  51.429  1.00  0.00    -0.269 OA
ATOM     10  N   UNL     1      26.039   3.261  53.136  1.00  0.00    -0.322 N 
ATOM     11  H   UNL     1      25.828   2.823  54.044  1.00  0.00     0.170 HD
BRANCH  10  12
ATOM     12  C   UNL     1      25.102   4.154  52.632  1.00  0.00     0.044 A 
ATOM     13  C   UNL     1      24.177   4.799  53.489  1.00  0.00     0.052 A 
ATOM     14  C   UNL     1      24.971   4.346  51.239  1.00  0.00     0.039 A 
ATOM     15  C   UNL     1      23.237   5.706  52.993  1.00  0.00     0.049 A 
ATOM     16  C   UNL     1      24.027   5.287  50.737  1.00  0.00     0.060 A 
ATOM     17  C   UNL     1      23.154   5.924  51.621  1.00  0.00     0.039 A 
BRANCH  15  18
ATOM     18  N   UNL     1      22.345   6.382  53.839  1.00  0.00    -0.306 N 
ATOM     19  C   UNL     1      22.032   6.119  55.171  1.00  0.00     0.116 A 
ATOM     20  C   UNL     1      21.525   7.385  53.502  1.00  0.00     0.204 A 
ATOM     21  C   UNL     1      21.057   6.973  55.552  1.00  0.00     0.056 A 
ATOM     22  N   UNL     1      20.778   7.779  54.504  1.00  0.00    -0.242 NA
ATOM     23  C   UNL     1      20.402   7.090  56.907  1.00  0.00     0.068 C 
ENDBRANCH  15  18
BRANCH  16  24
ATOM     24  C   UNL     1      23.951   5.515  49.262  1.00  0.00     0.416 C 
ATOM     25  F   UNL     1      24.620   6.597  48.818  1.00  0.00    -0.166 F 
ATOM     26  F   UNL     1      24.545   4.532  48.596  1.00  0.00    -0.166 F 
ATOM     27  F   UNL     1      22.688   5.733  48.841  1.00  0.00    -0.166 F 
ENDBRANCH  16  24
ENDBRANCH  10  12
ENDBRANCH   1   8
BRANCH   6  28
ATOM     28  N   UNL     1      30.671  -0.471  52.256  1.00  0.00    -0.324 N 
ATOM     29  H   UNL     1      30.525  -1.280  51.636  1.00  0.00     0.170 HD
BRANCH  28  30
ATOM     30  C   UNL     1      31.941   0.095  52.386  1.00  0.00     0.227 A 
ATOM     31  N   UNL     1      32.344   1.056  53.208  1.00  0.00    -0.221 NA
ATOM     32  N   UNL     1      32.739  -0.460  51.438  1.00  0.00    -0.213 NA
ATOM     33  C   UNL     1      33.626   1.451  53.096  1.00  0.00     0.117 A 
ATOM     34  C   UNL     1      33.996  -0.013  51.344  1.00  0.00     0.077 A 
ATOM     35  C   UNL     1      34.458   0.951  52.169  1.00  0.00     0.049 A 
BRANCH  34  36
ATOM     36  C   UNL     1      34.839  -0.677  50.315  1.00  0.00     0.019 A 
ATOM     37  C   UNL     1      36.132  -0.219  50.016  1.00  0.00     0.013 A 
ATOM     38  C   UNL     1      34.349  -1.785  49.596  1.00  0.00     0.121 A 
ATOM     39  C   UNL     1      36.864  -0.864  49.027  1.00  0.00     0.021 A 
ATOM     40  N   UNL     1      35.047  -2.406  48.636  1.00  0.00    -0.264 NA
ATOM     41  C   UNL     1      36.291  -1.963  48.388  1.00  0.00     0.111 A 
ENDBRANCH  34  36
ENDBRANCH  28  30
ENDBRANCH   6  28
TORSDOF 7
ENDMDL
MODEL 2
REMARK VINA RESULT:   -12.551      1.536      3.542
REMARK INTER + INTRA:         -16.206
REMARK INTER:                 -14.639
REMARK INTRA:                  -1.567
REMARK CONF_INDEPENDENT:        2.088
REMARK UNBOUND:                -1.567
REMARK SMILES Cc1cn(-c2cc(NC(=O)c3ccc(C)c(Nc4nccc(-c5cccnc5)n4)c3)cc(C(F)(F)F)c2)cn1
REMARK SMILES IDX 11 1 12 2 13 3 14 4 15 5 16 6 30 7 9 8 10 9 8 10 7 12 6 13
REMARK SMILES IDX 31 14 5 15 32 16 37 17 4 18 3 19 38 20 2 21 39 22 1 23 33 24
REMARK SMILES IDX 34 25 35 26 36 27 17 28 18 30 19 31 29 32 20 33 22 34 21 35
REMARK SMILES IDX 23 36 24 37 28 38 25 39 27 40 26 41
REMARK H PARENT 8 11 17 29
ROOT
ATOM      1  C   UNL     1      27.656   1.651  52.979  1.00  0.00     0.042 A 
ATOM      2  C   UNL     1      27.341   1.040  54.202  1.00  0.00     0.014 A 
ATOM      3  C   UNL     1      28.045  -0.074  54.660  1.00  0.00     0.006 A 
ATOM      4  C   UNL     1      29.028  -0.671  53.887  1.00  0.00    -0.027 A 
ATOM      5  C   UNL     1      29.783  -1.890  54.397  1.00  0.00     0.046 C 
ATOM      6  C   UNL     1      29.275  -0.130  52.627  1.00  0.00     0.045 A 
ATOM      7  C   UNL     1      28.575   1.003  52.195  1.00  0.00     0.040 A 
ENDROOT
BRANCH   1   8
ATOM      8  C   UNL     1      26.886   2.748  52.361  1.00  0.00     0.255 C 
ATOM      9  O   UNL     1      27.149   2.980  51.206  1.00  0.00    -0.269 OA
ATOM     10  N   UNL     1      25.824   3.189  53.053  1.00  0.00    -0.322 N 
ATOM     11  H   UNL     1      25.670   2.777  53.984  1.00  0.00     0.170 HD
BRANCH  10  12
ATOM     12  C   UNL     1      24.915   4.149  52.629  1.00  0.00     0.044 A 
ATOM     13  C   UNL     1      24.037   4.776  53.548  1.00  0.00     0.052 A 
ATOM     14  C   UNL     1      24.762   4.436  51.255  1.00  0.00     0.039 A 
ATOM     15  C   UNL     1      23.125   5.750  53.132  1.00  0.00     0.049 A 
ATOM     16  C   UNL     1      23.849   5.445  50.836  1.00  0.00     0.060 A 
ATOM     17  C   UNL     1      23.022   6.059  51.779  1.00  0.00     0.039 A 
BRANCH  15  18
ATOM     18  N   UNL     1      22.281   6.406  54.040  1.00  0.00    -0.306 N 
ATOM     19  C   UNL     1      22.075   6.142  55.393  1.00  0.00     0.116 A 
ATOM     20  C   UNL     1      21.412   7.385  53.762  1.00  0.00     0.204 A 
ATOM     21  C   UNL     1      21.110   6.972  55.843  1.00  0.00     0.056 A 
ATOM     22  N   UNL     1      20.731   7.764  54.816  1.00  0.00    -0.242 NA
ATOM     23  C   UNL     1      20.554   7.078  57.243  1.00  0.00     0.068 C 
ENDBRANCH  15  18
BRANCH  16  24
ATOM     24  C   UNL     1      23.751   5.770  49.381  1.00  0.00     0.416 C 
ATOM     25  F   UNL     1      23.587   7.078  49.099  1.00  0.00    -0.166 F 
ATOM     26  F   UNL     1      24.887   5.494  48.752  1.00  0.00    -0.166 F 
ATOM     27  F   UNL     1      22.683   5.188  48.796  1.00  0.00    -0.166 F 
ENDBRANCH  16  24
ENDBRANCH  10  12
ENDBRANCH   1   8
BRANCH   6  28
ATOM     28  N   UNL     1      30.370  -0.612  51.898  1.00  0.00    -0.324 N 
ATOM     29  H   UNL     1      30.253  -1.400  51.245  1.00  0.00     0.170 HD
BRANCH  28  30
ATOM     30  C   UNL     1      31.622  -0.016  52.063  1.00  0.00     0.227 A 
ATOM     31  N   UNL     1      32.759  -0.278  51.433  1.00  0.00    -0.221 NA
ATOM     32  N   UNL     1      31.521   0.878  53.081  1.00  0.00    -0.213 NA
ATOM     33  C   UNL     1      33.842   0.422  51.820  1.00  0.00     0.117 A 
ATOM     34  C   UNL     1      32.631   1.526  53.452  1.00  0.00     0.077 A 
ATOM     35  C   UNL     1      33.809   1.306  52.829  1.00  0.00     0.049 A 
BRANCH  34  36
ATOM     36  C   UNL     1      32.460   2.517  54.546  1.00  0.00     0.019 A 
ATOM     37  C   UNL     1      33.344   3.597  54.705  1.00  0.00     0.013 A 
ATOM     38  C   UNL     1      31.405   2.389  55.470  1.00  0.00     0.121 A 
ATOM     39  C   UNL     1      33.150   4.478  55.761  1.00  0.00     0.021 A 
ATOM     40  N   UNL     1      31.218   3.230  56.495  1.00  0.00    -0.264 NA
ATOM     41  C   UNL     1      32.063   4.268  56.608  1.00  0.00     0.111 A 
ENDBRANCH  34  36
ENDBRANCH  28  30
ENDBRANCH   6  28
TORSDOF 7
ENDMDL
MODEL 3
REMARK VINA RESULT:   -12.415      1.178      1.803
REMARK INTER + INTRA:         -15.852
REMARK INTER:                 -14.503
REMARK INTRA:                  -1.349
REMARK CONF_INDEPENDENT:        2.088
REMARK UNBOUND:                -1.349
REMARK SMILES Cc1cn(-c2cc(NC(=O)c3ccc(C)c(Nc4nccc(-c5cccnc5)n4)c3)cc(C(F)(F)F)c2)cn1
REMARK SMILES IDX 11 1 12 2 13 3 14 4 15 5 16 6 30 7 9 8 10 9 8 10 7 12 6 13
REMARK SMILES IDX 31 14 5 15 32 16 37 17 4 18 3 19 38 20 2 21 39 22 1 23 33 24
REMARK SMILES IDX 34 25 35 26 36 27 17 28 18 30 19 31 29 32 20 33 22 34 21 35
REMARK SMILES IDX 23 36 24 37 28 38 25 39 27 40 26 41
REMARK H PARENT 8 11 17 29
ROOT
ATOM      1  C   UNL     1      28.075   1.922  53.112  1.00  0.00     0.042 A 
ATOM      2  C   UNL     1      27.720   0.597  53.407  1.00  0.00     0.014 A 
ATOM      3  C   UNL     1      28.628  -0.284  53.995  1.00  0.00     0.006 A 
ATOM      4  C   UNL     1      29.941   0.090  54.235  1.00  0.00    -0.027 A 
ATOM      5  C   UNL     1      30.922  -0.884  54.871  1.00  0.00     0.046 C 
ATOM      6  C   UNL     1      30.327   1.373  53.849  1.00  0.00     0.045 A 
ATOM      7  C   UNL     1      29.394   2.250  53.282  1.00  0.00     0.040 A 
ENDROOT
BRANCH   1   8
ATOM      8  C   UNL     1      27.224   2.879  52.378  1.00  0.00     0.255 C 
ATOM      9  O   UNL     1      27.444   2.967  51.194  1.00  0.00    -0.269 OA
ATOM     10  N   UNL     1      26.155   3.348  53.039  1.00  0.00    -0.322 N 
ATOM     11  H   UNL     1      26.049   3.059  54.021  1.00  0.00     0.170 HD
BRANCH  10  12
ATOM     12  C   UNL     1      25.178   4.189  52.519  1.00  0.00     0.044 A 
ATOM     13  C   UNL     1      24.259   4.849  53.371  1.00  0.00     0.052 A 
ATOM     14  C   UNL     1      25.004   4.310  51.123  1.00  0.00     0.039 A 
ATOM     15  C   UNL     1      23.279   5.704  52.859  1.00  0.00     0.049 A 
ATOM     16  C   UNL     1      24.020   5.199  50.604  1.00  0.00     0.060 A 
ATOM     17  C   UNL     1      23.153   5.854  51.481  1.00  0.00     0.039 A 
BRANCH  15  18
ATOM     18  N   UNL     1      22.391   6.395  53.696  1.00  0.00    -0.306 N 
ATOM     19  C   UNL     1      22.092   6.163  55.038  1.00  0.00     0.116 A 
ATOM     20  C   UNL     1      21.562   7.384  53.343  1.00  0.00     0.204 A 
ATOM     21  C   UNL     1      21.116   7.020  55.408  1.00  0.00     0.056 A 
ATOM     22  N   UNL     1      20.821   7.798  54.342  1.00  0.00    -0.242 NA
ATOM     23  C   UNL     1      20.473   7.165  56.766  1.00  0.00     0.068 C 
ENDBRANCH  15  18
BRANCH  16  24
ATOM     24  C   UNL     1      23.897   5.353  49.122  1.00  0.00     0.416 C 
ATOM     25  F   UNL     1      22.840   6.081  48.711  1.00  0.00    -0.166 F 
ATOM     26  F   UNL     1      24.917   6.046  48.629  1.00  0.00    -0.166 F 
ATOM     27  F   UNL     1      23.726   4.171  48.496  1.00  0.00    -0.166 F 
ENDBRANCH  16  24
ENDBRANCH  10  12
ENDBRANCH   1   8
BRANCH   6  28
ATOM     28  N   UNL     1      31.597   1.828  54.227  1.00  0.00    -0.324 N 
ATOM     29  H   UNL     1      31.692   2.585  54.919  1.00  0.00     0.170 HD
BRANCH  28  30
ATOM     30  C   UNL     1      32.732   1.248  53.659  1.00  0.00     0.227 A 
ATOM     31  N   UNL     1      34.000   1.352  54.039  1.00  0.00    -0.221 NA
ATOM     32  N   UNL     1      32.339   0.579  52.544  1.00  0.00    -0.213 NA
ATOM     33  C   UNL     1      34.913   0.718  53.280  1.00  0.00     0.117 A 
ATOM     34  C   UNL     1      33.287  -0.008  51.804  1.00  0.00     0.077 A 
ATOM     35  C   UNL     1      34.588   0.054  52.159  1.00  0.00     0.049 A 
BRANCH  34  36
ATOM     36  C   UNL     1      32.802  -0.756  50.615  1.00  0.00     0.019 A 
ATOM     37  C   UNL     1      31.432  -0.926  50.362  1.00  0.00     0.013 A 
ATOM     38  C   UNL     1      33.716  -1.331  49.710  1.00  0.00     0.121 A 
ATOM     39  C   UNL     1      31.037  -1.656  49.248  1.00  0.00     0.021 A 
ATOM     40  N   UNL     1      33.341  -2.043  48.639  1.00  0.00    -0.264 NA
ATOM     41  C   UNL     1      32.024  -2.168  48.407  1.00  0.00     0.111 A 
ENDBRANCH  34  36
ENDBRANCH  28  30
ENDBRANCH   6  28
TORSDOF 7
ENDMDL
MODEL 4
REMARK VINA RESULT:   -11.574      4.173     11.183
REMARK INTER + INTRA:         -14.842
REMARK INTER:                 -13.662
REMARK INTRA:                  -1.180
REMARK CONF_INDEPENDENT:        2.088
REMARK UNBOUND:                -1.180
REMARK SMILES Cc1cn(-c2cc(NC(=O)c3ccc(C)c(Nc4nccc(-c5cccnc5)n4)c3)cc(C(F)(F)F)c2)cn1
REMARK SMILES IDX 11 1 12 2 13 3 14 4 15 5 16 6 30 7 9 8 10 9 8 10 7 12 6 13
REMARK SMILES IDX 31 14 5 15 32 16 37 17 4 18 3 19 38 20 2 21 39 22 1 23 33 24
REMARK SMILES IDX 34 25 35 26 36 27 17 28 18 30 19 31 29 32 20 33 22 34 21 35
REMARK SMILES IDX 23 36 24 37 28 38 25 39 27 40 26 41
REMARK H PARENT 8 11 17 29
ROOT
ATOM      1  C   UNL     1      25.884   3.882  52.068  1.00  0.00     0.042 A 
ATOM      2  C   UNL     1      25.273   4.387  50.911  1.00  0.00     0.014 A 
ATOM      3  C   UNL     1      24.158   5.224  50.983  1.00  0.00     0.006 A 
ATOM      4  C   UNL     1      23.561   5.521  52.198  1.00  0.00    -0.027 A 
ATOM      5  C   UNL     1      22.341   6.429  52.262  1.00  0.00     0.046 C 
ATOM      6  C   UNL     1      24.101   4.938  53.343  1.00  0.00     0.045 A 
ATOM      7  C   UNL     1      25.235   4.122  53.251  1.00  0.00     0.040 A 
ENDROOT
BRANCH   1   8
ATOM      8  C   UNL     1      26.981   2.895  52.080  1.00  0.00     0.255 C 
ATOM      9  O   UNL     1      27.659   2.862  51.082  1.00  0.00    -0.269 OA
ATOM     10  N   UNL     1      27.260   2.334  53.266  1.00  0.00    -0.322 N 
ATOM     11  H   UNL     1      26.648   2.583  54.056  1.00  0.00     0.170 HD
BRANCH  10  12
ATOM     12  C   UNL     1      28.297   1.448  53.526  1.00  0.00     0.044 A 
ATOM     13  C   UNL     1      29.599   1.682  53.016  1.00  0.00     0.052 A 
ATOM     14  C   UNL     1      28.051   0.233  54.202  1.00  0.00     0.039 A 
ATOM     15  C   UNL     1      30.651   0.801  53.281  1.00  0.00     0.049 A 
ATOM     16  C   UNL     1      29.129  -0.652  54.489  1.00  0.00     0.060 A 
ATOM     17  C   UNL     1      30.404  -0.368  53.993  1.00  0.00     0.039 A 
BRANCH  15  18
ATOM     18  N   UNL     1      31.952   1.045  52.816  1.00  0.00    -0.306 N 
ATOM     19  C   UNL     1      32.569   0.582  51.655  1.00  0.00     0.116 A 
ATOM     20  C   UNL     1      32.919   1.715  53.455  1.00  0.00     0.204 A 
ATOM     21  C   UNL     1      33.853   1.001  51.663  1.00  0.00     0.056 A 
ATOM     22  N   UNL     1      34.043   1.735  52.782  1.00  0.00    -0.242 NA
ATOM     23  C   UNL     1      34.913   0.767  50.614  1.00  0.00     0.068 C 
ENDBRANCH  15  18
BRANCH  16  24
ATOM     24  C   UNL     1      28.851  -1.902  55.259  1.00  0.00     0.416 C 
ATOM     25  F   UNL     1      28.004  -2.763  54.661  1.00  0.00    -0.166 F 
ATOM     26  F   UNL     1      29.948  -2.640  55.385  1.00  0.00    -0.166 F 
ATOM     27  F   UNL     1      28.259  -1.653  56.445  1.00  0.00    -0.166 F 
ENDBRANCH  16  24
ENDBRANCH  10  12
ENDBRANCH   1   8
BRANCH   6  28
ATOM     28  N   UNL     1      23.619   5.351  54.592  1.00  0.00    -0.324 N 
ATOM     29  H   UNL     1      22.914   4.787  55.088  1.00  0.00     0.170 HD
BRANCH  28  30
ATOM     30  C   UNL     1      24.102   6.531  55.159  1.00  0.00     0.227 A 
ATOM     31  N   UNL     1      24.151   7.749  54.633  1.00  0.00    -0.221 NA
ATOM     32  N   UNL     1      24.618   6.223  56.377  1.00  0.00    -0.213 NA
ATOM     33  C   UNL     1      24.713   8.712  55.387  1.00  0.00     0.117 A 
ATOM     34  C   UNL     1      25.195   7.207  57.075  1.00  0.00     0.077 A 
ATOM     35  C   UNL     1      25.254   8.466  56.590  1.00  0.00     0.049 A 
BRANCH  34  36
ATOM     36  C   UNL     1      25.713   6.825  58.415  1.00  0.00     0.019 A 
ATOM     37  C   UNL     1      24.849   6.480  59.466  1.00  0.00     0.013 A 
ATOM     38  C   UNL     1      27.098   6.816  58.671  1.00  0.00     0.121 A 
ATOM     39  C   UNL     1      25.388   6.156  60.705  1.00  0.00     0.021 A 
ATOM     40  N   UNL     1      27.623   6.512  59.865  1.00  0.00    -0.264 NA
ATOM     41  C   UNL     1      26.775   6.161  60.845  1.00  0.00     0.111 A 
ENDBRANCH  34  36
ENDBRANCH  28  30
ENDBRANCH   6  28
TORSDOF 7
ENDMDL
MODEL 5
REMARK VINA RESULT:   -11.490      3.743     11.766
REMARK INTER + INTRA:         -14.745
REMARK INTER:                 -13.578
REMARK INTRA:                  -1.168
REMARK CONF_INDEPENDENT:        2.088
REMARK UNBOUND:                -1.168
REMARK SMILES Cc1cn(-c2cc(NC(=O)c3ccc(C)c(Nc4nccc(-c5cccnc5)n4)c3)cc(C(F)(F)F)c2)cn1
REMARK SMILES IDX 11 1 12 2 13 3 14 4 15 5 16 6 30 7 9 8 10 9 8 10 7 12 6 13
REMARK SMILES IDX 31 14 5 15 32 16 37 17 4 18 3 19 38 20 2 21 39 22 1 23 33 24
REMARK SMILES IDX 34 25 35 26 36 27 17 28 18 30 19 31 29 32 20 33 22 34 21 35
REMARK SMILES IDX 23 36 24 37 28 38 25 39 27 40 26 41
REMARK H PARENT 8 11 17 29
ROOT
ATOM      1  C   UNL     1      25.923   3.777  51.865  1.00  0.00     0.042 A 
ATOM      2  C   UNL     1      25.290   4.202  50.687  1.00  0.00     0.014 A 
ATOM      3  C   UNL     1      24.160   5.020  50.724  1.00  0.00     0.006 A 
ATOM      4  C   UNL     1      23.569   5.377  51.925  1.00  0.00    -0.027 A 
ATOM      5  C   UNL     1      22.333   6.264  51.950  1.00  0.00     0.046 C 
ATOM      6  C   UNL     1      24.133   4.873  53.097  1.00  0.00     0.045 A 
ATOM      7  C   UNL     1      25.282   4.074  53.040  1.00  0.00     0.040 A 
ENDROOT
BRANCH   1   8
ATOM      8  C   UNL     1      27.039   2.814  51.923  1.00  0.00     0.255 C 
ATOM      9  O   UNL     1      27.760   2.797  50.954  1.00  0.00    -0.269 OA
ATOM     10  N   UNL     1      27.279   2.256  53.119  1.00  0.00    -0.322 N 
ATOM     11  H   UNL     1      26.629   2.491  53.883  1.00  0.00     0.170 HD
BRANCH  10  12
ATOM     12  C   UNL     1      28.323   1.391  53.422  1.00  0.00     0.044 A 
ATOM     13  C   UNL     1      29.633   1.636  52.940  1.00  0.00     0.052 A 
ATOM     14  C   UNL     1      28.079   0.185  54.114  1.00  0.00     0.039 A 
ATOM     15  C   UNL     1      30.692   0.777  53.248  1.00  0.00     0.049 A 
ATOM     16  C   UNL     1      29.163  -0.677  54.446  1.00  0.00     0.060 A 
ATOM     17  C   UNL     1      30.445  -0.381  53.976  1.00  0.00     0.039 A 
BRANCH  15  18
ATOM     18  N   UNL     1      32.001   1.034  52.811  1.00  0.00    -0.306 N 
ATOM     19  C   UNL     1      32.638   0.597  51.651  1.00  0.00     0.116 A 
ATOM     20  C   UNL     1      32.955   1.690  53.482  1.00  0.00     0.204 A 
ATOM     21  C   UNL     1      33.921   1.017  51.691  1.00  0.00     0.056 A 
ATOM     22  N   UNL     1      34.091   1.727  52.829  1.00  0.00    -0.242 NA
ATOM     23  C   UNL     1      35.000   0.808  50.656  1.00  0.00     0.068 C 
ENDBRANCH  15  18
BRANCH  16  24
ATOM     24  C   UNL     1      28.884  -1.917  55.232  1.00  0.00     0.416 C 
ATOM     25  F   UNL     1      28.052  -2.794  54.636  1.00  0.00    -0.166 F 
ATOM     26  F   UNL     1      29.985  -2.642  55.385  1.00  0.00    -0.166 F 
ATOM     27  F   UNL     1      28.273  -1.653  56.406  1.00  0.00    -0.166 F 
ENDBRANCH  16  24
ENDBRANCH  10  12
ENDBRANCH   1   8
BRANCH   6  28
ATOM     28  N   UNL     1      23.656   5.350  54.325  1.00  0.00    -0.324 N 
ATOM     29  H   UNL     1      22.681   5.173  54.607  1.00  0.00     0.170 HD
BRANCH  28  30
ATOM     30  C   UNL     1      24.512   6.066  55.163  1.00  0.00     0.227 A 
ATOM     31  N   UNL     1      25.820   6.259  55.049  1.00  0.00    -0.221 NA
ATOM     32  N   UNL     1      23.782   6.501  56.222  1.00  0.00    -0.213 NA
ATOM     33  C   UNL     1      26.417   6.960  56.031  1.00  0.00     0.117 A 
ATOM     34  C   UNL     1      24.425   7.165  57.190  1.00  0.00     0.077 A 
ATOM     35  C   UNL     1      25.752   7.403  57.110  1.00  0.00     0.049 A 
BRANCH  34  36
ATOM     36  C   UNL     1      23.576   7.651  58.309  1.00  0.00     0.019 A 
ATOM     37  C   UNL     1      22.283   7.148  58.523  1.00  0.00     0.013 A 
ATOM     38  C   UNL     1      24.048   8.649  59.184  1.00  0.00     0.121 A 
ATOM     39  C   UNL     1      21.525   7.657  59.570  1.00  0.00     0.021 A 
ATOM     40  N   UNL     1      23.320   9.149  60.190  1.00  0.00    -0.264 NA
ATOM     41  C   UNL     1      22.096   8.632  60.387  1.00  0.00     0.111 A 
ENDBRANCH  34  36
ENDBRANCH  28  30
ENDBRANCH   6  28
TORSDOF 7
ENDMDL
MODEL 6
REMARK VINA RESULT:   -11.488      2.042      3.036
REMARK INTER + INTRA:         -14.896
REMARK INTER:                 -13.576
REMARK INTRA:                  -1.320
REMARK CONF_INDEPENDENT:        2.088
REMARK UNBOUND:                -1.320
REMARK SMILES Cc1cn(-c2cc(NC(=O)c3ccc(C)c(Nc4nccc(-c5cccnc5)n4)c3)cc(C(F)(F)F)c2)cn1
REMARK SMILES IDX 11 1 12 2 13 3 14 4 15 5 16 6 30 7 9 8 10 9 8 10 7 12 6 13
REMARK SMILES IDX 31 14 5 15 32 16 37 17 4 18 3 19 38 20 2 21 39 22 1 23 33 24
REMARK SMILES IDX 34 25 35 26 36 27 17 28 18 30 19 31 29 32 20 33 22 34 21 35
REMARK SMILES IDX 23 36 24 37 28 38 25 39 27 40 26 41
REMARK H PARENT 8 11 17 29
ROOT
ATOM      1  C   UNL     1      27.000   2.413  52.421  1.00  0.00     0.042 A 
ATOM      2  C   UNL     1      27.135   1.038  52.175  1.00  0.00     0.014 A 
ATOM      3  C   UNL     1      27.901   0.222  53.009  1.00  0.00     0.006 A 
ATOM      4  C   UNL     1      28.625   0.752  54.065  1.00  0.00    -0.027 A 
ATOM      5  C   UNL     1      29.462  -0.148  54.962  1.00  0.00     0.046 C 
ATOM      6  C   UNL     1      28.577   2.133  54.252  1.00  0.00     0.045 A 
ATOM      7  C   UNL     1      27.783   2.931  53.419  1.00  0.00     0.040 A 
ENDROOT
BRANCH   1   8
ATOM      8  C   UNL     1      26.318   3.367  51.524  1.00  0.00     0.255 C 
ATOM      9  O   UNL     1      26.542   3.222  50.347  1.00  0.00    -0.269 OA
ATOM     10  N   UNL     1      25.348   4.110  52.078  1.00  0.00    -0.322 N 
ATOM     11  H   UNL     1      25.201   4.006  53.092  1.00  0.00     0.170 HD
BRANCH  10  12
ATOM     12  C   UNL     1      24.525   5.006  51.409  1.00  0.00     0.044 A 
ATOM     13  C   UNL     1      23.844   6.031  52.111  1.00  0.00     0.052 A 
ATOM     14  C   UNL     1      24.253   4.842  50.033  1.00  0.00     0.039 A 
ATOM     15  C   UNL     1      23.021   6.944  51.445  1.00  0.00     0.049 A 
ATOM     16  C   UNL     1      23.432   5.786  49.353  1.00  0.00     0.060 A 
ATOM     17  C   UNL     1      22.803   6.801  50.079  1.00  0.00     0.039 A 
BRANCH  15  18
ATOM     18  N   UNL     1      22.376   7.988  52.125  1.00  0.00    -0.306 N 
ATOM     19  C   UNL     1      21.516   7.921  53.220  1.00  0.00     0.116 A 
ATOM     20  C   UNL     1      22.383   9.285  51.794  1.00  0.00     0.204 A 
ATOM     21  C   UNL     1      21.068   9.168  53.482  1.00  0.00     0.056 A 
ATOM     22  N   UNL     1      21.647  10.011  52.599  1.00  0.00    -0.242 NA
ATOM     23  C   UNL     1      20.132   9.606  54.583  1.00  0.00     0.068 C 
ENDBRANCH  15  18
BRANCH  16  24
ATOM     24  C   UNL     1      23.209   5.623  47.884  1.00  0.00     0.416 C 
ATOM     25  F   UNL     1      23.344   6.751  47.159  1.00  0.00    -0.166 F 
ATOM     26  F   UNL     1      24.135   4.838  47.346  1.00  0.00    -0.166 F 
ATOM     27  F   UNL     1      21.956   5.214  47.598  1.00  0.00    -0.166 F 
ENDBRANCH  16  24
ENDBRANCH  10  12
ENDBRANCH   1   8
BRANCH   6  28
ATOM     28  N   UNL     1      29.166   2.670  55.404  1.00  0.00    -0.324 N 
ATOM     29  H   UNL     1      28.596   2.854  56.241  1.00  0.00     0.170 HD
BRANCH  28  30
ATOM     30  C   UNL     1      30.533   2.955  55.407  1.00  0.00     0.227 A 
ATOM     31  N   UNL     1      31.193   3.865  56.113  1.00  0.00    -0.221 NA
ATOM     32  N   UNL     1      31.120   2.167  54.469  1.00  0.00    -0.213 NA
ATOM     33  C   UNL     1      32.517   3.961  55.890  1.00  0.00     0.117 A 
ATOM     34  C   UNL     1      32.433   2.321  54.261  1.00  0.00     0.077 A 
ATOM     35  C   UNL     1      33.151   3.221  54.967  1.00  0.00     0.049 A 
BRANCH  34  36
ATOM     36  C   UNL     1      33.034   1.412  53.250  1.00  0.00     0.019 A 
ATOM     37  C   UNL     1      32.403   0.218  52.867  1.00  0.00     0.013 A 
ATOM     38  C   UNL     1      34.273   1.723  52.656  1.00  0.00     0.121 A 
ATOM     39  C   UNL     1      33.023  -0.605  51.936  1.00  0.00     0.021 A 
ATOM     40  N   UNL     1      34.880   0.929  51.764  1.00  0.00    -0.264 NA
ATOM     41  C   UNL     1      34.242  -0.194  51.397  1.00  0.00     0.111 A 
ENDBRANCH  34  36
ENDBRANCH  28  30
ENDBRANCH   6  28
TORSDOF 7
ENDMDL
MODEL 7
REMARK VINA RESULT:   -11.214      7.056      9.832
REMARK INTER + INTRA:         -14.625
REMARK INTER:                 -13.302
REMARK INTRA:                  -1.323
REMARK CONF_INDEPENDENT:        2.088
REMARK UNBOUND:                -1.323
REMARK SMILES Cc1cn(-c2cc(NC(=O)c3ccc(C)c(Nc4nccc(-c5cccnc5)n4)c3)cc(C(F)(F)F)c2)cn1
REMARK SMILES IDX 11 1 12 2 13 3 14 4 15 5 16 6 30 7 9 8 10 9 8 10 7 12 6 13
REMARK SMILES IDX 31 14 5 15 32 16 37 17 4 18 3 19 38 20 2 21 39 22 1 23 33 24
REMARK SMILES IDX 34 25 35 26 36 27 17 28 18 30 19 31 29 32 20 33 22 34 21 35
REMARK SMILES IDX 23 36 24 37 28 38 25 39 27 40 26 41
REMARK H PARENT 8 11 17 29
ROOT
ATOM      1  C   UNL     1      32.046   3.098  55.054  1.00  0.00     0.042 A 
ATOM      2  C   UNL     1      33.310   3.163  54.449  1.00  0.00     0.014 A 
ATOM      3  C   UNL     1      33.664   2.303  53.408  1.00  0.00     0.006 A 
ATOM      4  C   UNL     1      32.810   1.296  52.987  1.00  0.00    -0.027 A 
ATOM      5  C   UNL     1      33.212   0.360  51.856  1.00  0.00     0.046 C 
ATOM      6  C   UNL     1      31.594   1.159  53.654  1.00  0.00     0.045 A 
ATOM      7  C   UNL     1      31.248   2.048  54.680  1.00  0.00     0.040 A 
ENDROOT
BRANCH   1   8
ATOM      8  C   UNL     1      31.636   3.878  56.238  1.00  0.00     0.255 C 
ATOM      9  O   UNL     1      30.525   4.347  56.190  1.00  0.00    -0.269 OA
ATOM     10  N   UNL     1      32.424   3.771  57.318  1.00  0.00    -0.322 N 
ATOM     11  H   UNL     1      33.282   3.211  57.218  1.00  0.00     0.170 HD
BRANCH  10  12
ATOM     12  C   UNL     1      32.187   4.347  58.560  1.00  0.00     0.044 A 
ATOM     13  C   UNL     1      31.846   5.718  58.673  1.00  0.00     0.052 A 
ATOM     14  C   UNL     1      32.400   3.610  59.746  1.00  0.00     0.039 A 
ATOM     15  C   UNL     1      31.597   6.304  59.917  1.00  0.00     0.049 A 
ATOM     16  C   UNL     1      32.124   4.202  61.011  1.00  0.00     0.060 A 
ATOM     17  C   UNL     1      31.760   5.549  61.075  1.00  0.00     0.039 A 
BRANCH  15  18
ATOM     18  N   UNL     1      31.217   7.649  60.037  1.00  0.00    -0.306 N 
ATOM     19  C   UNL     1      29.960   8.223  59.859  1.00  0.00     0.116 A 
ATOM     20  C   UNL     1      32.024   8.692  60.262  1.00  0.00     0.204 A 
ATOM     21  C   UNL     1      30.084   9.562  59.992  1.00  0.00     0.056 A 
ATOM     22  N   UNL     1      31.378   9.832  60.275  1.00  0.00    -0.242 NA
ATOM     23  C   UNL     1      29.000  10.609  59.904  1.00  0.00     0.068 C 
ENDBRANCH  15  18
BRANCH  16  24
ATOM     24  C   UNL     1      32.300   3.380  62.246  1.00  0.00     0.416 C 
ATOM     25  F   UNL     1      31.878   2.104  62.146  1.00  0.00    -0.166 F 
ATOM     26  F   UNL     1      33.587   3.222  62.535  1.00  0.00    -0.166 F 
ATOM     27  F   UNL     1      31.594   3.864  63.289  1.00  0.00    -0.166 F 
ENDBRANCH  16  24
ENDBRANCH  10  12
ENDBRANCH   1   8
BRANCH   6  28
ATOM     28  N   UNL     1      30.651   0.258  53.143  1.00  0.00    -0.324 N 
ATOM     29  H   UNL     1      30.909  -0.390  52.386  1.00  0.00     0.170 HD
BRANCH  28  30
ATOM     30  C   UNL     1      29.358   0.245  53.670  1.00  0.00     0.227 A 
ATOM     31  N   UNL     1      28.836  -0.571  54.577  1.00  0.00    -0.221 NA
ATOM     32  N   UNL     1      28.641   1.201  53.024  1.00  0.00    -0.213 NA
ATOM     33  C   UNL     1      27.536  -0.391  54.877  1.00  0.00     0.117 A 
ATOM     34  C   UNL     1      27.345   1.321  53.334  1.00  0.00     0.077 A 
ATOM     35  C   UNL     1      26.772   0.526  54.263  1.00  0.00     0.049 A 
BRANCH  34  36
ATOM     36  C   UNL     1      26.613   2.404  52.626  1.00  0.00     0.019 A 
ATOM     37  C   UNL     1      25.656   3.195  53.281  1.00  0.00     0.013 A 
ATOM     38  C   UNL     1      26.853   2.656  51.261  1.00  0.00     0.121 A 
ATOM     39  C   UNL     1      24.985   4.176  52.563  1.00  0.00     0.021 A 
ATOM     40  N   UNL     1      26.204   3.595  50.561  1.00  0.00    -0.264 NA
ATOM     41  C   UNL     1      25.312   4.354  51.219  1.00  0.00     0.111 A 
ENDBRANCH  34  36
ENDBRANCH  28  30
ENDBRANCH   6  28
TORSDOF 7
ENDMDL
MODEL 8
REMARK VINA RESULT:   -11.072      1.640      2.492
REMARK INTER + INTRA:         -14.260
REMARK INTER:                 -13.160
REMARK INTRA:                  -1.099
REMARK CONF_INDEPENDENT:        2.088
REMARK UNBOUND:                -1.099
REMARK SMILES Cc1cn(-c2cc(NC(=O)c3ccc(C)c(Nc4nccc(-c5cccnc5)n4)c3)cc(C(F)(F)F)c2)cn1
REMARK SMILES IDX 11 1 12 2 13 3 14 4 15 5 16 6 30 7 9 8 10 9 8 10 7 12 6 13
REMARK SMILES IDX 31 14 5 15 32 16 37 17 4 18 3 19 38 20 2 21 39 22 1 23 33 24
REMARK SMILES IDX 34 25 35 26 36 27 17 28 18 30 19 31 29 32 20 33 22 34 21 35
REMARK SMILES IDX 23 36 24 37 28 38 25 39 27 40 26 41
REMARK H PARENT 8 11 17 29
ROOT
ATOM      1  C   UNL     1      27.121   2.333  52.451  1.00  0.00     0.042 A 
ATOM      2  C   UNL     1      27.331   1.130  51.761  1.00  0.00     0.014 A 
ATOM      3  C   UNL     1      28.282   0.203  52.190  1.00  0.00     0.006 A 
ATOM      4  C   UNL     1      29.113   0.471  53.265  1.00  0.00    -0.027 A 
ATOM      5  C   UNL     1      30.151  -0.547  53.717  1.00  0.00     0.046 C 
ATOM      6  C   UNL     1      28.980   1.709  53.891  1.00  0.00     0.045 A 
ATOM      7  C   UNL     1      28.003   2.616  53.461  1.00  0.00     0.040 A 
ENDROOT
BRANCH   1   8
ATOM      8  C   UNL     1      26.232   3.421  51.998  1.00  0.00     0.255 C 
ATOM      9  O   UNL     1      26.194   3.596  50.804  1.00  0.00    -0.269 OA
ATOM     10  N   UNL     1      25.390   3.918  52.916  1.00  0.00    -0.322 N 
ATOM     11  H   UNL     1      25.474   3.551  53.874  1.00  0.00     0.170 HD
BRANCH  10  12
ATOM     12  C   UNL     1      24.414   4.881  52.692  1.00  0.00     0.044 A 
ATOM     13  C   UNL     1      23.553   5.301  53.736  1.00  0.00     0.052 A 
ATOM     14  C   UNL     1      24.180   5.376  51.390  1.00  0.00     0.039 A 
ATOM     15  C   UNL     1      22.576   6.277  53.523  1.00  0.00     0.049 A 
ATOM     16  C   UNL     1      23.198   6.386  51.180  1.00  0.00     0.060 A 
ATOM     17  C   UNL     1      22.391   6.793  52.244  1.00  0.00     0.039 A 
BRANCH  15  18
ATOM     18  N   UNL     1      21.747   6.730  54.560  1.00  0.00    -0.306 N 
ATOM     19  C   UNL     1      20.917   7.849  54.593  1.00  0.00     0.116 A 
ATOM     20  C   UNL     1      21.651   6.215  55.792  1.00  0.00     0.204 A 
ATOM     21  C   UNL     1      20.375   7.937  55.827  1.00  0.00     0.056 A 
ATOM     22  N   UNL     1      20.821   6.887  56.552  1.00  0.00    -0.242 NA
ATOM     23  C   UNL     1      19.399   8.967  56.342  1.00  0.00     0.068 C 
ENDBRANCH  15  18
BRANCH  16  24
ATOM     24  C   UNL     1      23.012   6.935  49.803  1.00  0.00     0.416 C 
ATOM     25  F   UNL     1      24.018   6.674  48.944  1.00  0.00    -0.166 F 
ATOM     26  F   UNL     1      21.978   6.363  49.197  1.00  0.00    -0.166 F 
ATOM     27  F   UNL     1      22.934   8.282  49.794  1.00  0.00    -0.166 F 
ENDBRANCH  16  24
ENDBRANCH  10  12
ENDBRANCH   1   8
BRANCH   6  28
ATOM     28  N   UNL     1      29.693   1.937  55.076  1.00  0.00    -0.324 N 
ATOM     29  H   UNL     1      29.255   1.751  55.989  1.00  0.00     0.170 HD
BRANCH  28  30
ATOM     30  C   UNL     1      31.002   2.419  55.008  1.00  0.00     0.227 A 
ATOM     31  N   UNL     1      31.559   3.412  55.688  1.00  0.00    -0.221 NA
ATOM     32  N   UNL     1      31.643   1.730  54.029  1.00  0.00    -0.213 NA
ATOM     33  C   UNL     1      32.841   3.702  55.394  1.00  0.00     0.117 A 
ATOM     34  C   UNL     1      32.906   2.075  53.751  1.00  0.00     0.077 A 
ATOM     35  C   UNL     1      33.523   3.068  54.427  1.00  0.00     0.049 A 
BRANCH  34  36
ATOM     36  C   UNL     1      33.575   1.269  52.697  1.00  0.00     0.019 A 
ATOM     37  C   UNL     1      34.274   1.874  51.641  1.00  0.00     0.013 A 
ATOM     38  C   UNL     1      33.511  -0.138  52.725  1.00  0.00     0.121 A 
ATOM     39  C   UNL     1      34.859   1.071  50.670  1.00  0.00     0.021 A 
ATOM     40  N   UNL     1      34.066  -0.918  51.788  1.00  0.00    -0.264 NA
ATOM     41  C   UNL     1      34.750  -0.313  50.802  1.00  0.00     0.111 A 
ENDBRANCH  34  36
ENDBRANCH  28  30
ENDBRANCH   6  28
TORSDOF 7
ENDMDL
MODEL 9
REMARK VINA RESULT:   -11.002      4.576      8.080
REMARK INTER + INTRA:         -14.089
REMARK INTER:                 -13.090
REMARK INTRA:                  -0.999
REMARK CONF_INDEPENDENT:        2.088
REMARK UNBOUND:                -0.999
REMARK SMILES Cc1cn(-c2cc(NC(=O)c3ccc(C)c(Nc4nccc(-c5cccnc5)n4)c3)cc(C(F)(F)F)c2)cn1
REMARK SMILES IDX 11 1 12 2 13 3 14 4 15 5 16 6 30 7 9 8 10 9 8 10 7 12 6 13
REMARK SMILES IDX 31 14 5 15 32 16 37 17 4 18 3 19 38 20 2 21 39 22 1 23 33 24
REMARK SMILES IDX 34 25 35 26 36 27 17 28 18 30 19 31 29 32 20 33 22 34 21 35
REMARK SMILES IDX 23 36 24 37 28 38 25 39 27 40 26 41
REMARK H PARENT 8 11 17 29
ROOT
ATOM      1  C   UNL     1      34.032  -0.552  50.715  1.00  0.00     0.042 A 
ATOM      2  C   UNL     1      34.077  -1.817  50.109  1.00  0.00     0.014 A 
ATOM      3  C   UNL     1      35.102  -2.165  49.228  1.00  0.00     0.006 A 
ATOM      4  C   UNL     1      36.069  -1.246  48.852  1.00  0.00    -0.027 A 
ATOM      5  C   UNL     1      37.177  -1.637  47.885  1.00  0.00     0.046 C 
ATOM      6  C   UNL     1      35.970   0.044  49.370  1.00  0.00     0.045 A 
ATOM      7  C   UNL     1      34.948   0.366  50.272  1.00  0.00     0.040 A 
ENDROOT
BRANCH   1   8
ATOM      8  C   UNL     1      32.923  -0.058  51.554  1.00  0.00     0.255 C 
ATOM      9  O   UNL     1      33.000   1.100  51.886  1.00  0.00    -0.269 OA
ATOM     10  N   UNL     1      31.847  -0.855  51.643  1.00  0.00    -0.322 N 
ATOM     11  H   UNL     1      31.905  -1.772  51.177  1.00  0.00     0.170 HD
BRANCH  10  12
ATOM     12  C   UNL     1      30.663  -0.557  52.306  1.00  0.00     0.044 A 
ATOM     13  C   UNL     1      29.875   0.556  51.921  1.00  0.00     0.052 A 
ATOM     14  C   UNL     1      30.281  -1.284  53.454  1.00  0.00     0.039 A 
ATOM     15  C   UNL     1      28.677   0.858  52.576  1.00  0.00     0.049 A 
ATOM     16  C   UNL     1      29.049  -0.989  54.105  1.00  0.00     0.060 A 
ATOM     17  C   UNL     1      28.287   0.099  53.674  1.00  0.00     0.039 A 
BRANCH  15  18
ATOM     18  N   UNL     1      27.868   1.932  52.176  1.00  0.00    -0.306 N 
ATOM     19  C   UNL     1      26.904   2.622  52.908  1.00  0.00     0.116 A 
ATOM     20  C   UNL     1      27.793   2.465  50.951  1.00  0.00     0.204 A 
ATOM     21  C   UNL     1      26.317   3.522  52.090  1.00  0.00     0.056 A 
ATOM     22  N   UNL     1      26.909   3.431  50.878  1.00  0.00    -0.242 NA
ATOM     23  C   UNL     1      25.230   4.514  52.427  1.00  0.00     0.068 C 
ENDBRANCH  15  18
BRANCH  16  24
ATOM     24  C   UNL     1      28.640  -1.814  55.282  1.00  0.00     0.416 C 
ATOM     25  F   UNL     1      27.734  -2.776  55.016  1.00  0.00    -0.166 F 
ATOM     26  F   UNL     1      29.663  -2.521  55.748  1.00  0.00    -0.166 F 
ATOM     27  F   UNL     1      28.043  -1.078  56.242  1.00  0.00    -0.166 F 
ENDBRANCH  16  24
ENDBRANCH  10  12
ENDBRANCH   1   8
BRANCH   6  28
ATOM     28  N   UNL     1      37.022   0.939  49.135  1.00  0.00    -0.324 N 
ATOM     29  H   UNL     1      36.827   1.891  48.794  1.00  0.00     0.170 HD
BRANCH  28  30
ATOM     30  C   UNL     1      38.337   0.530  49.367  1.00  0.00     0.227 A 
ATOM     31  N   UNL     1      38.808  -0.250  50.332  1.00  0.00    -0.221 NA
ATOM     32  N   UNL     1      39.127   1.146  48.451  1.00  0.00    -0.213 NA
ATOM     33  C   UNL     1      40.139  -0.452  50.351  1.00  0.00     0.117 A 
ATOM     34  C   UNL     1      40.447   0.940  48.530  1.00  0.00     0.077 A 
ATOM     35  C   UNL     1      40.973   0.140  49.483  1.00  0.00     0.049 A 
BRANCH  34  36
ATOM     36  C   UNL     1      41.265   1.607  47.484  1.00  0.00     0.019 A 
ATOM     37  C   UNL     1      42.581   2.027  47.736  1.00  0.00     0.013 A 
ATOM     38  C   UNL     1      40.729   1.852  46.204  1.00  0.00     0.121 A 
ATOM     39  C   UNL     1      43.290   2.668  46.727  1.00  0.00     0.021 A 
ATOM     40  N   UNL     1      41.404   2.476  45.231  1.00  0.00    -0.264 NA
ATOM     41  C   UNL     1      42.670   2.844  45.491  1.00  0.00     0.111 A 
ENDBRANCH  34  36
ENDBRANCH  28  30
ENDBRANCH   6  28
TORSDOF 7
ENDMDL
MODEL 10
REMARK VINA RESULT:   -10.956      4.552      7.501
REMARK INTER + INTRA:         -13.759
REMARK INTER:                 -13.044
REMARK INTRA:                  -0.716
REMARK CONF_INDEPENDENT:        2.088
REMARK UNBOUND:                -0.716
REMARK SMILES Cc1cn(-c2cc(NC(=O)c3ccc(C)c(Nc4nccc(-c5cccnc5)n4)c3)cc(C(F)(F)F)c2)cn1
REMARK SMILES IDX 11 1 12 2 13 3 14 4 15 5 16 6 30 7 9 8 10 9 8 10 7 12 6 13
REMARK SMILES IDX 31 14 5 15 32 16 37 17 4 18 3 19 38 20 2 21 39 22 1 23 33 24
REMARK SMILES IDX 34 25 35 26 36 27 17 28 18 30 19 31 29 32 20 33 22 34 21 35
REMARK SMILES IDX 23 36 24 37 28 38 25 39 27 40 26 41
REMARK H PARENT 8 11 17 29
ROOT
ATOM      1  C   UNL     1      23.054   5.893  52.958  1.00  0.00     0.042 A 
ATOM      2  C   UNL     1      22.854   5.755  51.576  1.00  0.00     0.014 A 
ATOM      3  C   UNL     1      23.502   4.760  50.844  1.00  0.00     0.006 A 
ATOM      4  C   UNL     1      24.433   3.922  51.437  1.00  0.00    -0.027 A 
ATOM      5  C   UNL     1      25.139   2.846  50.623  1.00  0.00     0.046 C 
ATOM      6  C   UNL     1      24.715   4.123  52.787  1.00  0.00     0.045 A 
ATOM      7  C   UNL     1      24.034   5.111  53.511  1.00  0.00     0.040 A 
ENDROOT
BRANCH   1   8
ATOM      8  C   UNL     1      22.512   6.990  53.783  1.00  0.00     0.255 C 
ATOM      9  O   UNL     1      23.333   7.660  54.360  1.00  0.00    -0.269 OA
ATOM     10  N   UNL     1      21.213   7.277  53.606  1.00  0.00    -0.322 N 
ATOM     11  H   UNL     1      20.684   6.672  52.963  1.00  0.00     0.170 HD
BRANCH  10  12
ATOM     12  C   UNL     1      20.517   8.316  54.211  1.00  0.00     0.044 A 
ATOM     13  C   UNL     1      19.497   9.011  53.515  1.00  0.00     0.052 A 
ATOM     14  C   UNL     1      20.892   8.782  55.490  1.00  0.00     0.039 A 
ATOM     15  C   UNL     1      18.785  10.051  54.118  1.00  0.00     0.049 A 
ATOM     16  C   UNL     1      20.151   9.827  56.112  1.00  0.00     0.060 A 
ATOM     17  C   UNL     1      19.132  10.465  55.400  1.00  0.00     0.039 A 
BRANCH  15  18
ATOM     18  N   UNL     1      17.745  10.717  53.452  1.00  0.00    -0.306 N 
ATOM     19  C   UNL     1      16.609  11.323  53.987  1.00  0.00     0.116 A 
ATOM     20  C   UNL     1      17.584  10.829  52.129  1.00  0.00     0.204 A 
ATOM     21  C   UNL     1      15.844  11.762  52.964  1.00  0.00     0.056 A 
ATOM     22  N   UNL     1      16.487  11.473  51.810  1.00  0.00    -0.242 NA
ATOM     23  C   UNL     1      14.529  12.498  53.037  1.00  0.00     0.068 C 
ENDBRANCH  15  18
BRANCH  16  24
ATOM     24  C   UNL     1      20.531  10.260  57.491  1.00  0.00     0.416 C 
ATOM     25  F   UNL     1      21.795  10.711  57.617  1.00  0.00    -0.166 F 
ATOM     26  F   UNL     1      19.823  11.317  57.871  1.00  0.00    -0.166 F 
ATOM     27  F   UNL     1      20.468   9.249  58.381  1.00  0.00    -0.166 F 
ENDBRANCH  16  24
ENDBRANCH  10  12
ENDBRANCH   1   8
BRANCH   6  28
ATOM     28  N   UNL     1      25.527   3.190  53.445  1.00  0.00    -0.324 N 
ATOM     29  H   UNL     1      25.198   2.731  54.306  1.00  0.00     0.170 HD
BRANCH  28  30
ATOM     30  C   UNL     1      26.785   2.886  52.922  1.00  0.00     0.227 A 
ATOM     31  N   UNL     1      27.484   3.538  52.002  1.00  0.00    -0.221 NA
ATOM     32  N   UNL     1      27.186   1.710  53.471  1.00  0.00    -0.213 NA
ATOM     33  C   UNL     1      28.665   2.999  51.643  1.00  0.00     0.117 A 
ATOM     34  C   UNL     1      28.352   1.198  53.060  1.00  0.00     0.077 A 
ATOM     35  C   UNL     1      29.108   1.833  52.138  1.00  0.00     0.049 A 
BRANCH  34  36
ATOM     36  C   UNL     1      28.762  -0.071  53.715  1.00  0.00     0.019 A 
ATOM     37  C   UNL     1      28.039  -0.611  54.791  1.00  0.00     0.013 A 
ATOM     38  C   UNL     1      29.909  -0.764  53.279  1.00  0.00     0.121 A 
ATOM     39  C   UNL     1      28.484  -1.787  55.381  1.00  0.00     0.021 A 
ATOM     40  N   UNL     1      30.347  -1.894  53.849  1.00  0.00    -0.264 NA
ATOM     41  C   UNL     1      29.622  -2.401  54.859  1.00  0.00     0.111 A 
ENDBRANCH  34  36
ENDBRANCH  28  30
ENDBRANCH   6  28
TORSDOF 7
ENDMDL
MODEL 11
REMARK VINA RESULT:   -10.911      8.444     15.263
REMARK INTER + INTRA:         -14.297
REMARK INTER:                 -12.999
REMARK INTRA:                  -1.297
REMARK CONF_INDEPENDENT:        2.088
REMARK UNBOUND:                -1.297
REMARK SMILES Cc1cn(-c2cc(NC(=O)c3ccc(C)c(Nc4nccc(-c5cccnc5)n4)c3)cc(C(F)(F)F)c2)cn1
REMARK SMILES IDX 11 1 12 2 13 3 14 4 15 5 16 6 30 7 9 8 10 9 8 10 7 12 6 13
REMARK SMILES IDX 31 14 5 15 32 16 37 17 4 18 3 19 38 20 2 21 39 22 1 23 33 24
REMARK SMILES IDX 34 25 35 26 36 27 17 28 18 30 19 31 29 32 20 33 22 34 21 35
REMARK SMILES IDX 23 36 24 37 28 38 25 39 27 40 26 41
REMARK H PARENT 8 11 17 29
ROOT
ATOM      1  C   UNL     1      36.010  -1.655  49.271  1.00  0.00     0.042 A 
ATOM      2  C   UNL     1      35.225  -2.813  49.164  1.00  0.00     0.014 A 
ATOM      3  C   UNL     1      33.852  -2.787  49.414  1.00  0.00     0.006 A 
ATOM      4  C   UNL     1      33.225  -1.634  49.859  1.00  0.00    -0.027 A 
ATOM      5  C   UNL     1      31.728  -1.622  50.135  1.00  0.00     0.046 C 
ATOM      6  C   UNL     1      34.018  -0.507  50.067  1.00  0.00     0.045 A 
ATOM      7  C   UNL     1      35.389  -0.547  49.786  1.00  0.00     0.040 A 
ENDROOT
BRANCH   1   8
ATOM      8  C   UNL     1      37.480  -1.618  49.149  1.00  0.00     0.255 C 
ATOM      9  O   UNL     1      38.070  -1.193  50.112  1.00  0.00    -0.269 OA
ATOM     10  N   UNL     1      38.005  -2.282  48.108  1.00  0.00    -0.322 N 
ATOM     11  H   UNL     1      37.343  -2.706  47.443  1.00  0.00     0.170 HD
BRANCH  10  12
ATOM     12  C   UNL     1      39.358  -2.450  47.845  1.00  0.00     0.044 A 
ATOM     13  C   UNL     1      39.918  -2.028  46.614  1.00  0.00     0.052 A 
ATOM     14  C   UNL     1      40.183  -3.153  48.750  1.00  0.00     0.039 A 
ATOM     15  C   UNL     1      41.280  -2.183  46.344  1.00  0.00     0.049 A 
ATOM     16  C   UNL     1      41.576  -3.291  48.483  1.00  0.00     0.060 A 
ATOM     17  C   UNL     1      42.092  -2.833  47.269  1.00  0.00     0.039 A 
BRANCH  15  18
ATOM     18  N   UNL     1      41.852  -1.731  45.145  1.00  0.00    -0.306 N 
ATOM     19  C   UNL     1      42.150  -0.427  44.754  1.00  0.00     0.116 A 
ATOM     20  C   UNL     1      42.150  -2.471  44.071  1.00  0.00     0.204 A 
ATOM     21  C   UNL     1      42.609  -0.462  43.484  1.00  0.00     0.056 A 
ATOM     22  N   UNL     1      42.632  -1.753  43.086  1.00  0.00    -0.242 NA
ATOM     23  C   UNL     1      43.078   0.694  42.634  1.00  0.00     0.068 C 
ENDBRANCH  15  18
BRANCH  16  24
ATOM     24  C   UNL     1      42.437  -3.987  49.487  1.00  0.00     0.416 C 
ATOM     25  F   UNL     1      42.724  -3.266  50.589  1.00  0.00    -0.166 F 
ATOM     26  F   UNL     1      41.813  -5.040  50.002  1.00  0.00    -0.166 F 
ATOM     27  F   UNL     1      43.652  -4.299  48.991  1.00  0.00    -0.166 F 
ENDBRANCH  16  24
ENDBRANCH  10  12
ENDBRANCH   1   8
BRANCH   6  28
ATOM     28  N   UNL     1      33.385   0.709  50.358  1.00  0.00    -0.324 N 
ATOM     29  H   UNL     1      33.059   1.320  49.596  1.00  0.00     0.170 HD
BRANCH  28  30
ATOM     30  C   UNL     1      33.199   1.084  51.690  1.00  0.00     0.227 A 
ATOM     31  N   UNL     1      33.892   1.953  52.415  1.00  0.00    -0.221 NA
ATOM     32  N   UNL     1      32.189   0.329  52.194  1.00  0.00    -0.213 NA
ATOM     33  C   UNL     1      33.525   2.097  53.702  1.00  0.00     0.117 A 
ATOM     34  C   UNL     1      31.881   0.484  53.487  1.00  0.00     0.077 A 
ATOM     35  C   UNL     1      32.546   1.369  54.261  1.00  0.00     0.049 A 
BRANCH  34  36
ATOM     36  C   UNL     1      30.747  -0.339  53.980  1.00  0.00     0.019 A 
ATOM     37  C   UNL     1      29.649   0.240  54.638  1.00  0.00     0.013 A 
ATOM     38  C   UNL     1      30.751  -1.738  53.812  1.00  0.00     0.121 A 
ATOM     39  C   UNL     1      28.629  -0.582  55.100  1.00  0.00     0.021 A 
ATOM     40  N   UNL     1      29.775  -2.536  54.263  1.00  0.00    -0.264 NA
ATOM     41  C   UNL     1      28.726  -1.953  54.865  1.00  0.00     0.111 A 
ENDBRANCH  34  36
ENDBRANCH  28  30
ENDBRANCH   6  28
TORSDOF 7
ENDMDL
MODEL 12
REMARK VINA RESULT:   -10.903      3.590     12.060
REMARK INTER + INTRA:         -14.318
REMARK INTER:                 -12.991
REMARK INTRA:                  -1.326
REMARK CONF_INDEPENDENT:        2.088
REMARK UNBOUND:                -1.326
REMARK SMILES Cc1cn(-c2cc(NC(=O)c3ccc(C)c(Nc4nccc(-c5cccnc5)n4)c3)cc(C(F)(F)F)c2)cn1
REMARK SMILES IDX 11 1 12 2 13 3 14 4 15 5 16 6 30 7 9 8 10 9 8 10 7 12 6 13
REMARK SMILES IDX 31 14 5 15 32 16 37 17 4 18 3 19 38 20 2 21 39 22 1 23 33 24
REMARK SMILES IDX 34 25 35 26 36 27 17 28 18 30 19 31 29 32 20 33 22 34 21 35
REMARK SMILES IDX 23 36 24 37 28 38 25 39 27 40 26 41
REMARK H PARENT 8 11 17 29
ROOT
ATOM      1  C   UNL     1      25.709   3.585  51.919  1.00  0.00     0.042 A 
ATOM      2  C   UNL     1      24.949   3.709  50.746  1.00  0.00     0.014 A 
ATOM      3  C   UNL     1      23.620   4.132  50.783  1.00  0.00     0.006 A 
ATOM      4  C   UNL     1      22.973   4.366  51.986  1.00  0.00    -0.027 A 
ATOM      5  C   UNL     1      21.520   4.819  52.011  1.00  0.00     0.046 C 
ATOM      6  C   UNL     1      23.692   4.145  53.159  1.00  0.00     0.045 A 
ATOM      7  C   UNL     1      25.033   3.744  53.100  1.00  0.00     0.040 A 
ENDROOT
BRANCH   1   8
ATOM      8  C   UNL     1      27.074   3.027  51.984  1.00  0.00     0.255 C 
ATOM      9  O   UNL     1      27.614   2.851  50.919  1.00  0.00    -0.269 OA
ATOM     10  N   UNL     1      27.651   3.014  53.195  1.00  0.00    -0.322 N 
ATOM     11  H   UNL     1      27.077   3.330  53.990  1.00  0.00     0.170 HD
BRANCH  10  12
ATOM     12  C   UNL     1      28.951   2.613  53.476  1.00  0.00     0.044 A 
ATOM     13  C   UNL     1      29.586   1.611  52.702  1.00  0.00     0.052 A 
ATOM     14  C   UNL     1      29.625   3.109  54.613  1.00  0.00     0.039 A 
ATOM     15  C   UNL     1      30.897   1.208  52.970  1.00  0.00     0.049 A 
ATOM     16  C   UNL     1      30.969   2.714  54.871  1.00  0.00     0.060 A 
ATOM     17  C   UNL     1      31.568   1.744  54.064  1.00  0.00     0.039 A 
BRANCH  15  18
ATOM     18  N   UNL     1      31.549   0.246  52.183  1.00  0.00    -0.306 N 
ATOM     19  C   UNL     1      32.911   0.107  51.921  1.00  0.00     0.116 A 
ATOM     20  C   UNL     1      30.973  -0.701  51.434  1.00  0.00     0.204 A 
ATOM     21  C   UNL     1      33.070  -0.907  51.043  1.00  0.00     0.056 A 
ATOM     22  N   UNL     1      31.848  -1.421  50.776  1.00  0.00    -0.242 NA
ATOM     23  C   UNL     1      34.358  -1.448  50.472  1.00  0.00     0.068 C 
ENDBRANCH  15  18
BRANCH  16  24
ATOM     24  C   UNL     1      31.680   3.300  56.048  1.00  0.00     0.416 C 
ATOM     25  F   UNL     1      31.112   4.410  56.561  1.00  0.00    -0.166 F 
ATOM     26  F   UNL     1      31.650   2.472  57.085  1.00  0.00    -0.166 F 
ATOM     27  F   UNL     1      32.932   3.701  55.743  1.00  0.00    -0.166 F 
ENDBRANCH  16  24
ENDBRANCH  10  12
ENDBRANCH   1   8
BRANCH   6  28
ATOM     28  N   UNL     1      23.116   4.529  54.377  1.00  0.00    -0.324 N 
ATOM     29  H   UNL     1      22.531   3.867  54.906  1.00  0.00     0.170 HD
BRANCH  28  30
ATOM     30  C   UNL     1      23.341   5.816  54.867  1.00  0.00     0.227 A 
ATOM     31  N   UNL     1      24.282   6.236  55.703  1.00  0.00    -0.221 NA
ATOM     32  N   UNL     1      22.348   6.616  54.397  1.00  0.00    -0.213 NA
ATOM     33  C   UNL     1      24.246   7.536  56.052  1.00  0.00     0.117 A 
ATOM     34  C   UNL     1      22.336   7.892  54.797  1.00  0.00     0.077 A 
ATOM     35  C   UNL     1      23.283   8.371  55.633  1.00  0.00     0.049 A 
BRANCH  34  36
ATOM     36  C   UNL     1      21.251   8.733  54.227  1.00  0.00     0.019 A 
ATOM     37  C   UNL     1      19.901   8.363  54.333  1.00  0.00     0.013 A 
ATOM     38  C   UNL     1      21.555   9.928  53.546  1.00  0.00     0.121 A 
ATOM     39  C   UNL     1      18.931   9.176  53.759  1.00  0.00     0.021 A 
ATOM     40  N   UNL     1      20.626  10.711  52.984  1.00  0.00    -0.264 NA
ATOM     41  C   UNL     1      19.341  10.347  53.122  1.00  0.00     0.111 A 
ENDBRANCH  34  36
ENDBRANCH  28  30
ENDBRANCH   6  28
TORSDOF 7
ENDMDL
MODEL 13
REMARK VINA RESULT:   -10.842      3.357      5.388
REMARK INTER + INTRA:         -14.004
REMARK INTER:                 -12.930
REMARK INTRA:                  -1.073
REMARK CONF_INDEPENDENT:        2.088
REMARK UNBOUND:                -1.073
REMARK SMILES Cc1cn(-c2cc(NC(=O)c3ccc(C)c(Nc4nccc(-c5cccnc5)n4)c3)cc(C(F)(F)F)c2)cn1
REMARK SMILES IDX 11 1 12 2 13 3 14 4 15 5 16 6 30 7 9 8 10 9 8 10 7 12 6 13
REMARK SMILES IDX 31 14 5 15 32 16 37 17 4 18 3 19 38 20 2 21 39 22 1 23 33 24
REMARK SMILES IDX 34 25 35 26 36 27 17 28 18 30 19 31 29 32 20 33 22 34 21 35
REMARK SMILES IDX 23 36 24 37 28 38 25 39 27 40 26 41
REMARK H PARENT 8 11 17 29
ROOT
ATOM      1  C   UNL     1      27.604   1.947  52.486  1.00  0.00     0.042 A 
ATOM      2  C   UNL     1      27.868   0.756  51.793  1.00  0.00     0.014 A 
ATOM      3  C   UNL     1      28.825  -0.153  52.247  1.00  0.00     0.006 A 
ATOM      4  C   UNL     1      29.610   0.124  53.354  1.00  0.00    -0.027 A 
ATOM      5  C   UNL     1      30.655  -0.873  53.834  1.00  0.00     0.046 C 
ATOM      6  C   UNL     1      29.424   1.352  53.987  1.00  0.00     0.045 A 
ATOM      7  C   UNL     1      28.442   2.240  53.531  1.00  0.00     0.040 A 
ENDROOT
BRANCH   1   8
ATOM      8  C   UNL     1      26.706   3.018  52.011  1.00  0.00     0.255 C 
ATOM      9  O   UNL     1      26.733   3.229  50.823  1.00  0.00    -0.269 OA
ATOM     10  N   UNL     1      25.792   3.456  52.890  1.00  0.00    -0.322 N 
ATOM     11  H   UNL     1      25.831   3.063  53.841  1.00  0.00     0.170 HD
BRANCH  10  12
ATOM     12  C   UNL     1      24.798   4.393  52.635  1.00  0.00     0.044 A 
ATOM     13  C   UNL     1      23.921   4.821  53.663  1.00  0.00     0.052 A 
ATOM     14  C   UNL     1      24.562   4.849  51.320  1.00  0.00     0.039 A 
ATOM     15  C   UNL     1      22.925   5.770  53.418  1.00  0.00     0.049 A 
ATOM     16  C   UNL     1      23.561   5.833  51.077  1.00  0.00     0.060 A 
ATOM     17  C   UNL     1      22.738   6.250  52.126  1.00  0.00     0.039 A 
BRANCH  15  18
ATOM     18  N   UNL     1      22.079   6.231  54.438  1.00  0.00    -0.306 N 
ATOM     19  C   UNL     1      21.731   7.542  54.761  1.00  0.00     0.116 A 
ATOM     20  C   UNL     1      21.492   5.493  55.387  1.00  0.00     0.204 A 
ATOM     21  C   UNL     1      20.960   7.512  55.870  1.00  0.00     0.056 A 
ATOM     22  N   UNL     1      20.795   6.219  56.227  1.00  0.00    -0.242 NA
ATOM     23  C   UNL     1      20.325   8.676  56.591  1.00  0.00     0.068 C 
ENDBRANCH  15  18
BRANCH  16  24
ATOM     24  C   UNL     1      23.373   6.342  49.685  1.00  0.00     0.416 C 
ATOM     25  F   UNL     1      24.462   6.257  48.895  1.00  0.00    -0.166 F 
ATOM     26  F   UNL     1      22.493   5.603  49.021  1.00  0.00    -0.166 F 
ATOM     27  F   UNL     1      23.068   7.656  49.657  1.00  0.00    -0.166 F 
ENDBRANCH  16  24
ENDBRANCH  10  12
ENDBRANCH   1   8
BRANCH   6  28
ATOM     28  N   UNL     1      30.088   1.585  55.199  1.00  0.00    -0.324 N 
ATOM     29  H   UNL     1      29.775   1.117  56.061  1.00  0.00     0.170 HD
BRANCH  28  30
ATOM     30  C   UNL     1      31.178   2.458  55.228  1.00  0.00     0.227 A 
ATOM     31  N   UNL     1      32.040   2.746  54.261  1.00  0.00    -0.221 NA
ATOM     32  N   UNL     1      31.282   2.944  56.492  1.00  0.00    -0.213 NA
ATOM     33  C   UNL     1      33.036   3.597  54.572  1.00  0.00     0.117 A 
ATOM     34  C   UNL     1      32.307   3.761  56.761  1.00  0.00     0.077 A 
ATOM     35  C   UNL     1      33.200   4.098  55.806  1.00  0.00     0.049 A 
BRANCH  34  36
ATOM     36  C   UNL     1      32.357   4.293  58.148  1.00  0.00     0.019 A 
ATOM     37  C   UNL     1      32.009   5.622  58.439  1.00  0.00     0.013 A 
ATOM     38  C   UNL     1      32.774   3.472  59.214  1.00  0.00     0.121 A 
ATOM     39  C   UNL     1      32.099   6.071  59.750  1.00  0.00     0.021 A 
ATOM     40  N   UNL     1      32.870   3.902  60.479  1.00  0.00    -0.264 NA
ATOM     41  C   UNL     1      32.507   5.170  60.733  1.00  0.00     0.111 A 
ENDBRANCH  34  36
ENDBRANCH  28  30
ENDBRANCH   6  28
TORSDOF 7
ENDMDL
MODEL 14
REMARK VINA RESULT:   -10.769      4.676     13.537
REMARK INTER + INTRA:         -14.173
REMARK INTER:                 -12.857
REMARK INTRA:                  -1.316
REMARK CONF_INDEPENDENT:        2.088
REMARK UNBOUND:                -1.316
REMARK SMILES Cc1cn(-c2cc(NC(=O)c3ccc(C)c(Nc4nccc(-c5cccnc5)n4)c3)cc(C(F)(F)F)c2)cn1
REMARK SMILES IDX 11 1 12 2 13 3 14 4 15 5 16 6 30 7 9 8 10 9 8 10 7 12 6 13
REMARK SMILES IDX 31 14 5 15 32 16 37 17 4 18 3 19 38 20 2 21 39 22 1 23 33 24
REMARK SMILES IDX 34 25 35 26 36 27 17 28 18 30 19 31 29 32 20 33 22 34 21 35
REMARK SMILES IDX 23 36 24 37 28 38 25 39 27 40 26 41
REMARK H PARENT 8 11 17 29
ROOT
ATOM      1  C   UNL     1      21.098   7.350  54.273  1.00  0.00     0.042 A 
ATOM      2  C   UNL     1      20.998   7.542  55.659  1.00  0.00     0.014 A 
ATOM      3  C   UNL     1      20.274   8.608  56.195  1.00  0.00     0.006 A 
ATOM      4  C   UNL     1      19.697   9.567  55.378  1.00  0.00    -0.027 A 
ATOM      5  C   UNL     1      18.917  10.729  55.977  1.00  0.00     0.046 C 
ATOM      6  C   UNL     1      19.881   9.440  54.002  1.00  0.00     0.045 A 
ATOM      7  C   UNL     1      20.589   8.348  53.483  1.00  0.00     0.040 A 
ENDROOT
BRANCH   1   8
ATOM      8  C   UNL     1      21.943   6.329  53.622  1.00  0.00     0.255 C 
ATOM      9  O   UNL     1      21.902   5.230  54.117  1.00  0.00    -0.269 OA
ATOM     10  N   UNL     1      22.454   6.660  52.426  1.00  0.00    -0.322 N 
ATOM     11  H   UNL     1      22.275   7.616  52.089  1.00  0.00     0.170 HD
BRANCH  10  12
ATOM     12  C   UNL     1      23.203   5.830  51.602  1.00  0.00     0.044 A 
ATOM     13  C   UNL     1      24.291   5.082  52.118  1.00  0.00     0.052 A 
ATOM     14  C   UNL     1      22.975   5.805  50.209  1.00  0.00     0.039 A 
ATOM     15  C   UNL     1      25.044   4.237  51.298  1.00  0.00     0.049 A 
ATOM     16  C   UNL     1      23.729   4.927  49.379  1.00  0.00     0.060 A 
ATOM     17  C   UNL     1      24.773   4.184  49.935  1.00  0.00     0.039 A 
BRANCH  15  18
ATOM     18  N   UNL     1      26.096   3.460  51.808  1.00  0.00    -0.306 N 
ATOM     19  C   UNL     1      26.446   3.223  53.136  1.00  0.00     0.116 A 
ATOM     20  C   UNL     1      27.054   2.847  51.103  1.00  0.00     0.204 A 
ATOM     21  C   UNL     1      27.578   2.487  53.149  1.00  0.00     0.056 A 
ATOM     22  N   UNL     1      27.925   2.235  51.867  1.00  0.00    -0.242 NA
ATOM     23  C   UNL     1      28.333   1.965  54.348  1.00  0.00     0.068 C 
ENDBRANCH  15  18
BRANCH  16  24
ATOM     24  C   UNL     1      23.426   4.877  47.917  1.00  0.00     0.416 C 
ATOM     25  F   UNL     1      22.580   3.896  47.544  1.00  0.00    -0.166 F 
ATOM     26  F   UNL     1      22.772   5.966  47.528  1.00  0.00    -0.166 F 
ATOM     27  F   UNL     1      24.526   4.642  47.172  1.00  0.00    -0.166 F 
ENDBRANCH  16  24
ENDBRANCH  10  12
ENDBRANCH   1   8
BRANCH   6  28
ATOM     28  N   UNL     1      19.175  10.300  53.152  1.00  0.00    -0.324 N 
ATOM     29  H   UNL     1      19.675  10.860  52.448  1.00  0.00     0.170 HD
BRANCH  28  30
ATOM     30  C   UNL     1      17.786  10.392  53.268  1.00  0.00     0.227 A 
ATOM     31  N   UNL     1      17.026  11.479  53.323  1.00  0.00    -0.221 NA
ATOM     32  N   UNL     1      17.300   9.132  53.403  1.00  0.00    -0.213 NA
ATOM     33  C   UNL     1      15.703  11.284  53.482  1.00  0.00     0.117 A 
ATOM     34  C   UNL     1      15.982   8.991  53.591  1.00  0.00     0.077 A 
ATOM     35  C   UNL     1      15.164  10.064  53.636  1.00  0.00     0.049 A 
BRANCH  34  36
ATOM     36  C   UNL     1      15.495   7.590  53.698  1.00  0.00     0.019 A 
ATOM     37  C   UNL     1      14.638   7.187  54.734  1.00  0.00     0.013 A 
ATOM     38  C   UNL     1      15.899   6.619  52.760  1.00  0.00     0.121 A 
ATOM     39  C   UNL     1      14.235   5.859  54.798  1.00  0.00     0.021 A 
ATOM     40  N   UNL     1      15.520   5.336  52.821  1.00  0.00    -0.264 NA
ATOM     41  C   UNL     1      14.679   4.984  53.808  1.00  0.00     0.111 A 
ENDBRANCH  34  36
ENDBRANCH  28  30
ENDBRANCH   6  28
TORSDOF 7
ENDMDL
MODEL 15
REMARK VINA RESULT:   -10.768      4.109     11.166
REMARK INTER + INTRA:         -14.128
REMARK INTER:                 -12.856
REMARK INTRA:                  -1.272
REMARK CONF_INDEPENDENT:        2.088
REMARK UNBOUND:                -1.272
REMARK SMILES Cc1cn(-c2cc(NC(=O)c3ccc(C)c(Nc4nccc(-c5cccnc5)n4)c3)cc(C(F)(F)F)c2)cn1
REMARK SMILES IDX 11 1 12 2 13 3 14 4 15 5 16 6 30 7 9 8 10 9 8 10 7 12 6 13
REMARK SMILES IDX 31 14 5 15 32 16 37 17 4 18 3 19 38 20 2 21 39 22 1 23 33 24
REMARK SMILES IDX 34 25 35 26 36 27 17 28 18 30 19 31 29 32 20 33 22 34 21 35
REMARK SMILES IDX 23 36 24 37 28 38 25 39 27 40 26 41
REMARK H PARENT 8 11 17 29
ROOT
ATOM      1  C   UNL     1      25.628   3.698  51.878  1.00  0.00     0.042 A 
ATOM      2  C   UNL     1      24.838   3.750  50.720  1.00  0.00     0.014 A 
ATOM      3  C   UNL     1      23.503   4.152  50.768  1.00  0.00     0.006 A 
ATOM      4  C   UNL     1      22.881   4.437  51.974  1.00  0.00    -0.027 A 
ATOM      5  C   UNL     1      21.422   4.867  52.012  1.00  0.00     0.046 C 
ATOM      6  C   UNL     1      23.632   4.287  53.139  1.00  0.00     0.045 A 
ATOM      7  C   UNL     1      24.978   3.906  53.067  1.00  0.00     0.040 A 
ENDROOT
BRANCH   1   8
ATOM      8  C   UNL     1      27.004   3.165  51.937  1.00  0.00     0.255 C 
ATOM      9  O   UNL     1      27.584   3.110  50.881  1.00  0.00    -0.269 OA
ATOM     10  N   UNL     1      27.538   3.043  53.162  1.00  0.00    -0.322 N 
ATOM     11  H   UNL     1      26.930   3.265  53.962  1.00  0.00     0.170 HD
BRANCH  10  12
ATOM     12  C   UNL     1      28.838   2.644  53.448  1.00  0.00     0.044 A 
ATOM     13  C   UNL     1      29.482   1.651  52.670  1.00  0.00     0.052 A 
ATOM     14  C   UNL     1      29.502   3.133  54.595  1.00  0.00     0.039 A 
ATOM     15  C   UNL     1      30.793   1.251  52.945  1.00  0.00     0.049 A 
ATOM     16  C   UNL     1      30.845   2.740  54.860  1.00  0.00     0.060 A 
ATOM     17  C   UNL     1      31.454   1.780  54.049  1.00  0.00     0.039 A 
BRANCH  15  18
ATOM     18  N   UNL     1      31.454   0.299  52.155  1.00  0.00    -0.306 N 
ATOM     19  C   UNL     1      31.073  -0.237  50.926  1.00  0.00     0.116 A 
ATOM     20  C   UNL     1      32.568  -0.372  52.472  1.00  0.00     0.204 A 
ATOM     21  C   UNL     1      31.973  -1.183  50.580  1.00  0.00     0.056 A 
ATOM     22  N   UNL     1      32.918  -1.230  51.545  1.00  0.00    -0.242 NA
ATOM     23  C   UNL     1      31.999  -2.028  49.329  1.00  0.00     0.068 C 
ENDBRANCH  15  18
BRANCH  16  24
ATOM     24  C   UNL     1      31.545   3.319  56.046  1.00  0.00     0.416 C 
ATOM     25  F   UNL     1      31.650   2.491  57.105  1.00  0.00    -0.166 F 
ATOM     26  F   UNL     1      32.819   3.575  55.771  1.00  0.00    -0.166 F 
ATOM     27  F   UNL     1      30.900   4.392  56.550  1.00  0.00    -0.166 F 
ENDBRANCH  16  24
ENDBRANCH  10  12
ENDBRANCH   1   8
BRANCH   6  28
ATOM     28  N   UNL     1      23.079   4.723  54.349  1.00  0.00    -0.324 N 
ATOM     29  H   UNL     1      22.491   4.089  54.910  1.00  0.00     0.170 HD
BRANCH  28  30
ATOM     30  C   UNL     1      23.330   6.023  54.790  1.00  0.00     0.227 A 
ATOM     31  N   UNL     1      23.019   7.175  54.208  1.00  0.00    -0.221 NA
ATOM     32  N   UNL     1      24.050   5.937  55.938  1.00  0.00    -0.213 NA
ATOM     33  C   UNL     1      23.422   8.297  54.833  1.00  0.00     0.117 A 
ATOM     34  C   UNL     1      24.455   7.079  56.505  1.00  0.00     0.077 A 
ATOM     35  C   UNL     1      24.150   8.276  55.960  1.00  0.00     0.049 A 
BRANCH  34  36
ATOM     36  C   UNL     1      25.210   6.932  57.777  1.00  0.00     0.019 A 
ATOM     37  C   UNL     1      24.574   7.028  59.025  1.00  0.00     0.013 A 
ATOM     38  C   UNL     1      26.601   6.706  57.762  1.00  0.00     0.121 A 
ATOM     39  C   UNL     1      25.335   6.908  60.181  1.00  0.00     0.021 A 
ATOM     40  N   UNL     1      27.340   6.597  58.873  1.00  0.00    -0.264 NA
ATOM     41  C   UNL     1      26.702   6.667  60.053  1.00  0.00     0.111 A 
ENDBRANCH  34  36
ENDBRANCH  28  30
ENDBRANCH   6  28
TORSDOF 7
ENDMDL
MODEL 16
REMARK VINA RESULT:   -10.755      2.846      4.436
REMARK INTER + INTRA:         -14.106
REMARK INTER:                 -12.843
REMARK INTRA:                  -1.263
REMARK CONF_INDEPENDENT:        2.088
REMARK UNBOUND:                -1.263
REMARK SMILES Cc1cn(-c2cc(NC(=O)c3ccc(C)c(Nc4nccc(-c5cccnc5)n4)c3)cc(C(F)(F)F)c2)cn1
REMARK SMILES IDX 11 1 12 2 13 3 14 4 15 5 16 6 30 7 9 8 10 9 8 10 7 12 6 13
REMARK SMILES IDX 31 14 5 15 32 16 37 17 4 18 3 19 38 20 2 21 39 22 1 23 33 24
REMARK SMILES IDX 34 25 35 26 36 27 17 28 18 30 19 31 29 32 20 33 22 34 21 35
REMARK SMILES IDX 23 36 24 37 28 38 25 39 27 40 26 41
REMARK H PARENT 8 11 17 29
ROOT
ATOM      1  C   UNL     1      29.216   1.933  53.253  1.00  0.00     0.042 A 
ATOM      2  C   UNL     1      29.938   2.965  53.870  1.00  0.00     0.014 A 
ATOM      3  C   UNL     1      31.296   2.828  54.162  1.00  0.00     0.006 A 
ATOM      4  C   UNL     1      31.964   1.636  53.930  1.00  0.00    -0.027 A 
ATOM      5  C   UNL     1      33.443   1.499  54.261  1.00  0.00     0.046 C 
ATOM      6  C   UNL     1      31.227   0.572  53.414  1.00  0.00     0.045 A 
ATOM      7  C   UNL     1      29.871   0.738  53.104  1.00  0.00     0.040 A 
ENDROOT
BRANCH   1   8
ATOM      8  C   UNL     1      27.757   1.943  53.025  1.00  0.00     0.255 C 
ATOM      9  O   UNL     1      27.140   1.063  53.574  1.00  0.00    -0.269 OA
ATOM     10  N   UNL     1      27.256   3.050  52.457  1.00  0.00    -0.322 N 
ATOM     11  H   UNL     1      27.929   3.772  52.165  1.00  0.00     0.170 HD
BRANCH  10  12
ATOM     12  C   UNL     1      25.911   3.311  52.226  1.00  0.00     0.044 A 
ATOM     13  C   UNL     1      25.280   2.874  51.035  1.00  0.00     0.052 A 
ATOM     14  C   UNL     1      25.173   4.121  53.116  1.00  0.00     0.039 A 
ATOM     15  C   UNL     1      23.925   3.123  50.798  1.00  0.00     0.049 A 
ATOM     16  C   UNL     1      23.788   4.355  52.884  1.00  0.00     0.060 A 
ATOM     17  C   UNL     1      23.197   3.880  51.711  1.00  0.00     0.039 A 
BRANCH  15  18
ATOM     18  N   UNL     1      23.281   2.659  49.641  1.00  0.00    -0.306 N 
ATOM     19  C   UNL     1      22.667   1.428  49.415  1.00  0.00     0.116 A 
ATOM     20  C   UNL     1      23.203   3.285  48.461  1.00  0.00     0.204 A 
ATOM     21  C   UNL     1      22.257   1.391  48.128  1.00  0.00     0.056 A 
ATOM     22  N   UNL     1      22.572   2.575  47.558  1.00  0.00    -0.242 NA
ATOM     23  C   UNL     1      21.525   0.278  47.418  1.00  0.00     0.068 C 
ENDBRANCH  15  18
BRANCH  16  24
ATOM     24  C   UNL     1      23.017   5.166  53.875  1.00  0.00     0.416 C 
ATOM     25  F   UNL     1      22.383   6.239  53.362  1.00  0.00    -0.166 F 
ATOM     26  F   UNL     1      22.008   4.467  54.381  1.00  0.00    -0.166 F 
ATOM     27  F   UNL     1      23.808   5.696  54.830  1.00  0.00    -0.166 F 
ENDBRANCH  16  24
ENDBRANCH  10  12
ENDBRANCH   1   8
BRANCH   6  28
ATOM     28  N   UNL     1      31.911  -0.585  53.021  1.00  0.00    -0.324 N 
ATOM     29  H   UNL     1      32.376  -1.177  53.723  1.00  0.00     0.170 HD
BRANCH  28  30
ATOM     30  C   UNL     1      31.959  -0.929  51.668  1.00  0.00     0.227 A 
ATOM     31  N   UNL     1      30.960  -1.249  50.855  1.00  0.00    -0.221 NA
ATOM     32  N   UNL     1      33.265  -0.966  51.298  1.00  0.00    -0.213 NA
ATOM     33  C   UNL     1      31.290  -1.586  49.594  1.00  0.00     0.117 A 
ATOM     34  C   UNL     1      33.545  -1.337  50.044  1.00  0.00     0.077 A 
ATOM     35  C   UNL     1      32.563  -1.655  49.173  1.00  0.00     0.049 A 
BRANCH  34  36
ATOM     36  C   UNL     1      34.986  -1.328  49.678  1.00  0.00     0.019 A 
ATOM     37  C   UNL     1      35.548  -2.335  48.877  1.00  0.00     0.013 A 
ATOM     38  C   UNL     1      35.835  -0.305  50.143  1.00  0.00     0.121 A 
ATOM     39  C   UNL     1      36.906  -2.288  48.588  1.00  0.00     0.021 A 
ATOM     40  N   UNL     1      37.146  -0.258  49.875  1.00  0.00    -0.264 NA
ATOM     41  C   UNL     1      37.653  -1.220  49.086  1.00  0.00     0.111 A 
ENDBRANCH  34  36
ENDBRANCH  28  30
ENDBRANCH   6  28
TORSDOF 7
ENDMDL
MODEL 17
REMARK VINA RESULT:   -10.721      6.738     14.741
REMARK INTER + INTRA:         -13.779
REMARK INTER:                 -12.810
REMARK INTRA:                  -0.969
REMARK CONF_INDEPENDENT:        2.088
REMARK UNBOUND:                -0.969
REMARK SMILES Cc1cn(-c2cc(NC(=O)c3ccc(C)c(Nc4nccc(-c5cccnc5)n4)c3)cc(C(F)(F)F)c2)cn1
REMARK SMILES IDX 11 1 12 2 13 3 14 4 15 5 16 6 30 7 9 8 10 9 8 10 7 12 6 13
REMARK SMILES IDX 31 14 5 15 32 16 37 17 4 18 3 19 38 20 2 21 39 22 1 23 33 24
REMARK SMILES IDX 34 25 35 26 36 27 17 28 18 30 19 31 29 32 20 33 22 34 21 35
REMARK SMILES IDX 23 36 24 37 28 38 25 39 27 40 26 41
REMARK H PARENT 8 11 17 29
ROOT
ATOM      1  C   UNL     1      35.636  -1.273  49.677  1.00  0.00     0.042 A 
ATOM      2  C   UNL     1      34.869  -2.242  49.014  1.00  0.00     0.014 A 
ATOM      3  C   UNL     1      33.477  -2.263  49.116  1.00  0.00     0.006 A 
ATOM      4  C   UNL     1      32.805  -1.378  49.945  1.00  0.00    -0.027 A 
ATOM      5  C   UNL     1      31.287  -1.417  50.053  1.00  0.00     0.046 C 
ATOM      6  C   UNL     1      33.570  -0.480  50.687  1.00  0.00     0.045 A 
ATOM      7  C   UNL     1      34.963  -0.459  50.550  1.00  0.00     0.040 A 
ENDROOT
BRANCH   1   8
ATOM      8  C   UNL     1      37.112  -1.254  49.726  1.00  0.00     0.255 C 
ATOM      9  O   UNL     1      37.591  -0.713  50.692  1.00  0.00    -0.269 OA
ATOM     10  N   UNL     1      37.743  -2.044  48.845  1.00  0.00    -0.322 N 
ATOM     11  H   UNL     1      37.157  -2.547  48.164  1.00  0.00     0.170 HD
BRANCH  10  12
ATOM     12  C   UNL     1      39.115  -2.246  48.767  1.00  0.00     0.044 A 
ATOM     13  C   UNL     1      39.910  -2.298  49.939  1.00  0.00     0.052 A 
ATOM     14  C   UNL     1      39.766  -2.281  47.514  1.00  0.00     0.039 A 
ATOM     15  C   UNL     1      41.290  -2.510  49.871  1.00  0.00     0.049 A 
ATOM     16  C   UNL     1      41.168  -2.520  47.447  1.00  0.00     0.060 A 
ATOM     17  C   UNL     1      41.910  -2.596  48.628  1.00  0.00     0.039 A 
BRANCH  15  18
ATOM     18  N   UNL     1      42.080  -2.606  51.026  1.00  0.00    -0.306 N 
ATOM     19  C   UNL     1      42.067  -3.587  52.017  1.00  0.00     0.116 A 
ATOM     20  C   UNL     1      42.964  -1.705  51.469  1.00  0.00     0.204 A 
ATOM     21  C   UNL     1      42.939  -3.222  52.982  1.00  0.00     0.056 A 
ATOM     22  N   UNL     1      43.514  -2.059  52.606  1.00  0.00    -0.242 NA
ATOM     23  C   UNL     1      43.289  -3.968  54.248  1.00  0.00     0.068 C 
ENDBRANCH  15  18
BRANCH  16  24
ATOM     24  C   UNL     1      41.821  -2.613  46.106  1.00  0.00     0.416 C 
ATOM     25  F   UNL     1      41.142  -2.026  45.100  1.00  0.00    -0.166 F 
ATOM     26  F   UNL     1      42.970  -1.948  46.087  1.00  0.00    -0.166 F 
ATOM     27  F   UNL     1      41.957  -3.889  45.690  1.00  0.00    -0.166 F 
ENDBRANCH  16  24
ENDBRANCH  10  12
ENDBRANCH   1   8
BRANCH   6  28
ATOM     28  N   UNL     1      32.908   0.526  51.403  1.00  0.00    -0.324 N 
ATOM     29  H   UNL     1      33.134   1.517  51.235  1.00  0.00     0.170 HD
BRANCH  28  30
ATOM     30  C   UNL     1      31.940   0.175  52.346  1.00  0.00     0.227 A 
ATOM     31  N   UNL     1      31.990  -0.766  53.279  1.00  0.00    -0.221 NA
ATOM     32  N   UNL     1      30.839   0.933  52.107  1.00  0.00    -0.213 NA
ATOM     33  C   UNL     1      30.889  -0.927  54.037  1.00  0.00     0.117 A 
ATOM     34  C   UNL     1      29.758   0.715  52.865  1.00  0.00     0.077 A 
ATOM     35  C   UNL     1      29.765  -0.220  53.839  1.00  0.00     0.049 A 
BRANCH  34  36
ATOM     36  C   UNL     1      28.591   1.593  52.588  1.00  0.00     0.019 A 
ATOM     37  C   UNL     1      27.495   1.658  53.462  1.00  0.00     0.013 A 
ATOM     38  C   UNL     1      28.550   2.380  51.420  1.00  0.00     0.121 A 
ATOM     39  C   UNL     1      26.421   2.477  53.139  1.00  0.00     0.021 A 
ATOM     40  N   UNL     1      27.514   3.166  51.100  1.00  0.00    -0.264 NA
ATOM     41  C   UNL     1      26.490   3.228  51.967  1.00  0.00     0.111 A 
ENDBRANCH  34  36
ENDBRANCH  28  30
ENDBRANCH   6  28
TORSDOF 7
ENDMDL
MODEL 18
REMARK VINA RESULT:   -10.640      3.740     12.018
REMARK INTER + INTRA:         -13.801
REMARK INTER:                 -12.728
REMARK INTRA:                  -1.073
REMARK CONF_INDEPENDENT:        2.088
REMARK UNBOUND:                -1.073
REMARK SMILES Cc1cn(-c2cc(NC(=O)c3ccc(C)c(Nc4nccc(-c5cccnc5)n4)c3)cc(C(F)(F)F)c2)cn1
REMARK SMILES IDX 11 1 12 2 13 3 14 4 15 5 16 6 30 7 9 8 10 9 8 10 7 12 6 13
REMARK SMILES IDX 31 14 5 15 32 16 37 17 4 18 3 19 38 20 2 21 39 22 1 23 33 24
REMARK SMILES IDX 34 25 35 26 36 27 17 28 18 30 19 31 29 32 20 33 22 34 21 35
REMARK SMILES IDX 23 36 24 37 28 38 25 39 27 40 26 41
REMARK H PARENT 8 11 17 29
ROOT
ATOM      1  C   UNL     1      26.366   3.239  52.158  1.00  0.00     0.042 A 
ATOM      2  C   UNL     1      25.935   3.223  50.823  1.00  0.00     0.014 A 
ATOM      3  C   UNL     1      24.891   4.039  50.386  1.00  0.00     0.006 A 
ATOM      4  C   UNL     1      24.183   4.836  51.272  1.00  0.00    -0.027 A 
ATOM      5  C   UNL     1      23.041   5.716  50.782  1.00  0.00     0.046 C 
ATOM      6  C   UNL     1      24.539   4.779  52.618  1.00  0.00     0.045 A 
ATOM      7  C   UNL     1      25.606   3.973  53.032  1.00  0.00     0.040 A 
ENDROOT
BRANCH   1   8
ATOM      8  C   UNL     1      27.371   2.323  52.732  1.00  0.00     0.255 C 
ATOM      9  O   UNL     1      27.236   2.073  53.904  1.00  0.00    -0.269 OA
ATOM     10  N   UNL     1      28.156   1.681  51.853  1.00  0.00    -0.322 N 
ATOM     11  H   UNL     1      28.042   1.926  50.859  1.00  0.00     0.170 HD
BRANCH  10  12
ATOM     12  C   UNL     1      29.108   0.717  52.161  1.00  0.00     0.044 A 
ATOM     13  C   UNL     1      30.073   0.317  51.205  1.00  0.00     0.052 A 
ATOM     14  C   UNL     1      29.059   0.029  53.393  1.00  0.00     0.039 A 
ATOM     15  C   UNL     1      31.041  -0.644  51.509  1.00  0.00     0.049 A 
ATOM     16  C   UNL     1      30.059  -0.935  53.709  1.00  0.00     0.060 A 
ATOM     17  C   UNL     1      31.012  -1.278  52.747  1.00  0.00     0.039 A 
BRANCH  15  18
ATOM     18  N   UNL     1      32.027  -1.017  50.583  1.00  0.00    -0.306 N 
ATOM     19  C   UNL     1      33.362  -0.621  50.518  1.00  0.00     0.116 A 
ATOM     20  C   UNL     1      31.858  -1.777  49.495  1.00  0.00     0.204 A 
ATOM     21  C   UNL     1      33.910  -1.164  49.409  1.00  0.00     0.056 A 
ATOM     22  N   UNL     1      32.962  -1.910  48.800  1.00  0.00    -0.242 NA
ATOM     23  C   UNL     1      35.333  -1.040  48.920  1.00  0.00     0.068 C 
ENDBRANCH  15  18
BRANCH  16  24
ATOM     24  C   UNL     1      30.019  -1.605  55.044  1.00  0.00     0.416 C 
ATOM     25  F   UNL     1      30.041  -2.952  55.006  1.00  0.00    -0.166 F 
ATOM     26  F   UNL     1      31.111  -1.332  55.748  1.00  0.00    -0.166 F 
ATOM     27  F   UNL     1      28.886  -1.330  55.722  1.00  0.00    -0.166 F 
ENDBRANCH  16  24
ENDBRANCH  10  12
ENDBRANCH   1   8
BRANCH   6  28
ATOM     28  N   UNL     1      23.950   5.692  53.502  1.00  0.00    -0.324 N 
ATOM     29  H   UNL     1      22.967   5.973  53.381  1.00  0.00     0.170 HD
BRANCH  28  30
ATOM     30  C   UNL     1      24.708   6.219  54.550  1.00  0.00     0.227 A 
ATOM     31  N   UNL     1      26.024   6.365  54.635  1.00  0.00    -0.221 NA
ATOM     32  N   UNL     1      23.857   6.510  55.568  1.00  0.00    -0.213 NA
ATOM     33  C   UNL     1      26.505   6.866  55.788  1.00  0.00     0.117 A 
ATOM     34  C   UNL     1      24.384   6.975  56.706  1.00  0.00     0.077 A 
ATOM     35  C   UNL     1      25.716   7.158  56.835  1.00  0.00     0.049 A 
BRANCH  34  36
ATOM     36  C   UNL     1      23.409   7.311  57.776  1.00  0.00     0.019 A 
ATOM     37  C   UNL     1      23.803   7.436  59.118  1.00  0.00     0.013 A 
ATOM     38  C   UNL     1      22.047   7.500  57.469  1.00  0.00     0.121 A 
ATOM     39  C   UNL     1      22.843   7.727  60.079  1.00  0.00     0.021 A 
ATOM     40  N   UNL     1      21.116   7.773  58.392  1.00  0.00    -0.264 NA
ATOM     41  C   UNL     1      21.525   7.912  59.664  1.00  0.00     0.111 A 
ENDBRANCH  34  36
ENDBRANCH  28  30
ENDBRANCH   6  28
TORSDOF 7
ENDMDL
MODEL 19
REMARK VINA RESULT:   -10.537      8.248     14.931
REMARK INTER + INTRA:         -13.972
REMARK INTER:                 -12.625
REMARK INTRA:                  -1.347
REMARK CONF_INDEPENDENT:        2.088
REMARK UNBOUND:                -1.347
REMARK SMILES Cc1cn(-c2cc(NC(=O)c3ccc(C)c(Nc4nccc(-c5cccnc5)n4)c3)cc(C(F)(F)F)c2)cn1
REMARK SMILES IDX 11 1 12 2 13 3 14 4 15 5 16 6 30 7 9 8 10 9 8 10 7 12 6 13
REMARK SMILES IDX 31 14 5 15 32 16 37 17 4 18 3 19 38 20 2 21 39 22 1 23 33 24
REMARK SMILES IDX 34 25 35 26 36 27 17 28 18 30 19 31 29 32 20 33 22 34 21 35
REMARK SMILES IDX 23 36 24 37 28 38 25 39 27 40 26 41
REMARK H PARENT 8 11 17 29
ROOT
ATOM      1  C   UNL     1      36.055  -1.571  49.348  1.00  0.00     0.042 A 
ATOM      2  C   UNL     1      35.356  -2.777  49.192  1.00  0.00     0.014 A 
ATOM      3  C   UNL     1      33.975  -2.847  49.386  1.00  0.00     0.006 A 
ATOM      4  C   UNL     1      33.254  -1.747  49.821  1.00  0.00    -0.027 A 
ATOM      5  C   UNL     1      31.750  -1.839  50.036  1.00  0.00     0.046 C 
ATOM      6  C   UNL     1      33.960  -0.572  50.078  1.00  0.00     0.045 A 
ATOM      7  C   UNL     1      35.341  -0.516  49.853  1.00  0.00     0.040 A 
ENDROOT
BRANCH   1   8
ATOM      8  C   UNL     1      37.524  -1.434  49.287  1.00  0.00     0.255 C 
ATOM      9  O   UNL     1      37.968  -0.410  49.744  1.00  0.00    -0.269 OA
ATOM     10  N   UNL     1      38.209  -2.544  48.973  1.00  0.00    -0.322 N 
ATOM     11  H   UNL     1      37.659  -3.381  48.735  1.00  0.00     0.170 HD
BRANCH  10  12
ATOM     12  C   UNL     1      39.592  -2.667  48.939  1.00  0.00     0.044 A 
ATOM     13  C   UNL     1      40.356  -2.618  50.132  1.00  0.00     0.052 A 
ATOM     14  C   UNL     1      40.278  -2.722  47.706  1.00  0.00     0.039 A 
ATOM     15  C   UNL     1      41.747  -2.750  50.109  1.00  0.00     0.049 A 
ATOM     16  C   UNL     1      41.694  -2.879  47.686  1.00  0.00     0.060 A 
ATOM     17  C   UNL     1      42.405  -2.856  48.888  1.00  0.00     0.039 A 
BRANCH  15  18
ATOM     18  N   UNL     1      42.508  -2.745  51.288  1.00  0.00    -0.306 N 
ATOM     19  C   UNL     1      42.575  -3.710  52.291  1.00  0.00     0.116 A 
ATOM     20  C   UNL     1      43.275  -1.747  51.742  1.00  0.00     0.204 A 
ATOM     21  C   UNL     1      43.372  -3.241  53.275  1.00  0.00     0.056 A 
ATOM     22  N   UNL     1      43.826  -2.025  52.898  1.00  0.00    -0.242 NA
ATOM     23  C   UNL     1      43.765  -3.929  54.560  1.00  0.00     0.068 C 
ENDBRANCH  15  18
BRANCH  16  24
ATOM     24  C   UNL     1      42.388  -2.995  46.368  1.00  0.00     0.416 C 
ATOM     25  F   UNL     1      42.137  -4.133  45.691  1.00  0.00    -0.166 F 
ATOM     26  F   UNL     1      41.958  -2.069  45.519  1.00  0.00    -0.166 F 
ATOM     27  F   UNL     1      43.731  -2.995  46.494  1.00  0.00    -0.166 F 
ENDBRANCH  16  24
ENDBRANCH  10  12
ENDBRANCH   1   8
BRANCH   6  28
ATOM     28  N   UNL     1      33.235   0.593  50.360  1.00  0.00    -0.324 N 
ATOM     29  H   UNL     1      32.831   1.151  49.595  1.00  0.00     0.170 HD
BRANCH  28  30
ATOM     30  C   UNL     1      33.066   0.992  51.687  1.00  0.00     0.227 A 
ATOM     31  N   UNL     1      33.767   1.875  52.387  1.00  0.00    -0.221 NA
ATOM     32  N   UNL     1      32.065   0.243  52.218  1.00  0.00    -0.213 NA
ATOM     33  C   UNL     1      33.416   2.041  53.677  1.00  0.00     0.117 A 
ATOM     34  C   UNL     1      31.774   0.421  53.512  1.00  0.00     0.077 A 
ATOM     35  C   UNL     1      32.447   1.320  54.261  1.00  0.00     0.049 A 
BRANCH  34  36
ATOM     36  C   UNL     1      30.649  -0.397  54.035  1.00  0.00     0.019 A 
ATOM     37  C   UNL     1      29.560   0.191  54.699  1.00  0.00     0.013 A 
ATOM     38  C   UNL     1      30.654  -1.798  53.890  1.00  0.00     0.121 A 
ATOM     39  C   UNL     1      28.549  -0.626  55.190  1.00  0.00     0.021 A 
ATOM     40  N   UNL     1      29.686  -2.590  54.367  1.00  0.00    -0.264 NA
ATOM     41  C   UNL     1      28.644  -2.000  54.976  1.00  0.00     0.111 A 
ENDBRANCH  34  36
ENDBRANCH  28  30
ENDBRANCH   6  28
TORSDOF 7
ENDMDL
MODEL 20
REMARK VINA RESULT:   -10.337      3.435     11.127
REMARK INTER + INTRA:         -13.752
REMARK INTER:                 -12.426
REMARK INTRA:                  -1.327
REMARK CONF_INDEPENDENT:        2.088
REMARK UNBOUND:                -1.327
REMARK SMILES Cc1cn(-c2cc(NC(=O)c3ccc(C)c(Nc4nccc(-c5cccnc5)n4)c3)cc(C(F)(F)F)c2)cn1
REMARK SMILES IDX 11 1 12 2 13 3 14 4 15 5 16 6 30 7 9 8 10 9 8 10 7 12 6 13
REMARK SMILES IDX 31 14 5 15 32 16 37 17 4 18 3 19 38 20 2 21 39 22 1 23 33 24
REMARK SMILES IDX 34 25 35 26 36 27 17 28 18 30 19 31 29 32 20 33 22 34 21 35
REMARK SMILES IDX 23 36 24 37 28 38 25 39 27 40 26 41
REMARK H PARENT 8 11 17 29
ROOT
ATOM      1  C   UNL     1      25.611   3.808  51.184  1.00  0.00     0.042 A 
ATOM      2  C   UNL     1      25.357   3.597  49.821  1.00  0.00     0.014 A 
ATOM      3  C   UNL     1      24.419   4.364  49.128  1.00  0.00     0.006 A 
ATOM      4  C   UNL     1      23.642   5.308  49.779  1.00  0.00    -0.027 A 
ATOM      5  C   UNL     1      22.617   6.132  49.013  1.00  0.00     0.046 C 
ATOM      6  C   UNL     1      23.815   5.450  51.155  1.00  0.00     0.045 A 
ATOM      7  C   UNL     1      24.780   4.688  51.827  1.00  0.00     0.040 A 
ENDROOT
BRANCH   1   8
ATOM      8  C   UNL     1      26.487   2.964  52.020  1.00  0.00     0.255 C 
ATOM      9  O   UNL     1      26.097   2.766  53.144  1.00  0.00    -0.269 OA
ATOM     10  N   UNL     1      27.470   2.315  51.378  1.00  0.00    -0.322 N 
ATOM     11  H   UNL     1      27.577   2.506  50.372  1.00  0.00     0.170 HD
BRANCH  10  12
ATOM     12  C   UNL     1      28.356   1.408  51.946  1.00  0.00     0.044 A 
ATOM     13  C   UNL     1      29.562   1.060  51.288  1.00  0.00     0.052 A 
ATOM     14  C   UNL     1      28.019   0.723  53.133  1.00  0.00     0.039 A 
ATOM     15  C   UNL     1      30.464   0.157  51.857  1.00  0.00     0.049 A 
ATOM     16  C   UNL     1      28.950  -0.180  53.722  1.00  0.00     0.060 A 
ATOM     17  C   UNL     1      30.141  -0.472  53.055  1.00  0.00     0.039 A 
BRANCH  15  18
ATOM     18  N   UNL     1      31.680  -0.162  51.234  1.00  0.00    -0.306 N 
ATOM     19  C   UNL     1      31.948  -1.155  50.292  1.00  0.00     0.116 A 
ATOM     20  C   UNL     1      32.878   0.376  51.491  1.00  0.00     0.204 A 
ATOM     21  C   UNL     1      33.275  -1.151  50.040  1.00  0.00     0.056 A 
ATOM     22  N   UNL     1      33.834  -0.164  50.775  1.00  0.00    -0.242 NA
ATOM     23  C   UNL     1      34.040  -2.028  49.079  1.00  0.00     0.068 C 
ENDBRANCH  15  18
BRANCH  16  24
ATOM     24  C   UNL     1      28.592  -0.846  55.011  1.00  0.00     0.416 C 
ATOM     25  F   UNL     1      27.525  -1.668  54.950  1.00  0.00    -0.166 F 
ATOM     26  F   UNL     1      29.554  -1.673  55.404  1.00  0.00    -0.166 F 
ATOM     27  F   UNL     1      28.250   0.040  55.969  1.00  0.00    -0.166 F 
ENDBRANCH  16  24
ENDBRANCH  10  12
ENDBRANCH   1   8
BRANCH   6  28
ATOM     28  N   UNL     1      23.161   6.505  51.804  1.00  0.00    -0.324 N 
ATOM     29  H   UNL     1      22.946   7.375  51.295  1.00  0.00     0.170 HD
BRANCH  28  30
ATOM     30  C   UNL     1      22.803   6.369  53.147  1.00  0.00     0.227 A 
ATOM     31  N   UNL     1      21.597   6.195  53.673  1.00  0.00    -0.221 NA
ATOM     32  N   UNL     1      23.927   6.526  53.891  1.00  0.00    -0.213 NA
ATOM     33  C   UNL     1      21.525   6.137  55.016  1.00  0.00     0.117 A 
ATOM     34  C   UNL     1      23.801   6.493  55.223  1.00  0.00     0.077 A 
ATOM     35  C   UNL     1      22.598   6.300  55.806  1.00  0.00     0.049 A 
BRANCH  34  36
ATOM     36  C   UNL     1      25.065   6.634  55.992  1.00  0.00     0.019 A 
ATOM     37  C   UNL     1      26.317   6.404  55.398  1.00  0.00     0.013 A 
ATOM     38  C   UNL     1      25.038   6.990  57.354  1.00  0.00     0.121 A 
ATOM     39  C   UNL     1      27.464   6.526  56.172  1.00  0.00     0.021 A 
ATOM     40  N   UNL     1      26.140   7.102  58.107  1.00  0.00    -0.264 NA
ATOM     41  C   UNL     1      27.325   6.902  57.507  1.00  0.00     0.111 A 
ENDBRANCH  34  36
ENDBRANCH  28  30
ENDBRANCH   6  28
TORSDOF 7
ENDMDL
