MODEL 1
REMARK VINA RESULT:   -14.411      0.000      0.000
REMARK INTER + INTRA:         -17.668
REMARK INTER:                 -16.499
REMARK INTRA:                  -1.169
REMARK CONF_INDEPENDENT:        2.088
REMARK UNBOUND:                -1.169
REMARK SMILES Cc1cn(-c2cc(NC(=O)c3ccc(C)c(Nc4nccc(-c5cccnc5)n4)c3)cc(C(F)(F)F)c2)cn1
REMARK SMILES IDX 11 1 12 2 13 3 14 4 15 5 16 6 30 7 9 8 10 9 8 10 7 12 6 13
REMARK SMILES IDX 31 14 5 15 32 16 37 17 4 18 3 19 38 20 2 21 39 22 1 23 33 24
REMARK SMILES IDX 34 25 35 26 36 27 17 28 18 30 19 31 29 32 20 33 22 34 21 35
REMARK SMILES IDX 23 36 24 37 28 38 25 39 27 40 26 41
REMARK H PARENT 8 11 17 29
ROOT
ATOM      1  C   UNL     1      27.967   1.701  53.098  1.00  0.00     0.042 A 
ATOM      2  C   UNL     1      27.663   1.163  54.357  1.00  0.00     0.014 A 
ATOM      3  C   UNL     1      28.370   0.076  54.873  1.00  0.00     0.006 A 
ATOM      4  C   UNL     1      29.345  -0.567  54.127  1.00  0.00    -0.027 A 
ATOM      5  C   UNL     1      30.103  -1.756  54.700  1.00  0.00     0.046 C 
ATOM      6  C   UNL     1      29.580  -0.101  52.834  1.00  0.00     0.045 A 
ATOM      7  C   UNL     1      28.877   1.007  52.344  1.00  0.00     0.040 A 
ENDROOT
BRANCH   1   8
ATOM      8  C   UNL     1      27.192   2.761  52.424  1.00  0.00     0.255 C 
ATOM      9  O   UNL     1      27.502   2.982  51.279  1.00  0.00    -0.269 OA
ATOM     10  N   UNL     1      26.085   3.178  53.057  1.00  0.00    -0.322 N 
ATOM     11  H   UNL     1      25.900   2.778  53.988  1.00  0.00     0.170 HD
BRANCH  10  12
ATOM     12  C   UNL     1      25.167   4.101  52.573  1.00  0.00     0.044 A 
ATOM     13  C   UNL     1      24.244   4.734  53.443  1.00  0.00     0.052 A 
ATOM     14  C   UNL     1      25.051   4.339  51.186  1.00  0.00     0.039 A 
ATOM     15  C   UNL     1      23.323   5.671  52.966  1.00  0.00     0.049 A 
ATOM     16  C   UNL     1      24.127   5.310  50.705  1.00  0.00     0.060 A 
ATOM     17  C   UNL     1      23.257   5.934  51.602  1.00  0.00     0.039 A 
BRANCH  15  18
ATOM     18  N   UNL     1      22.434   6.335  53.825  1.00  0.00    -0.306 N 
ATOM     19  C   UNL     1      22.120   6.047  55.152  1.00  0.00     0.116 A 
ATOM     20  C   UNL     1      21.619   7.348  53.508  1.00  0.00     0.204 A 
ATOM     21  C   UNL     1      21.150   6.899  55.550  1.00  0.00     0.056 A 
ATOM     22  N   UNL     1      20.873   7.725  54.517  1.00  0.00    -0.242 NA
ATOM     23  C   UNL     1      20.495   6.992  56.907  1.00  0.00     0.068 C 
ENDBRANCH  15  18
BRANCH  16  24
ATOM     24  C   UNL     1      24.068   5.586  49.238  1.00  0.00     0.416 C 
ATOM     25  F   UNL     1      24.857   6.594  48.815  1.00  0.00    -0.166 F 
ATOM     26  F   UNL     1      24.539   4.558  48.540  1.00  0.00    -0.166 F 
ATOM     27  F   UNL     1      22.837   5.962  48.836  1.00  0.00    -0.166 F 
ENDBRANCH  16  24
ENDBRANCH  10  12
ENDBRANCH   1   8
BRANCH   6  28
ATOM     28  N   UNL     1      30.668  -0.627  52.124  1.00  0.00    -0.324 N 
ATOM     29  H   UNL     1      30.538  -1.435  51.500  1.00  0.00     0.170 HD
BRANCH  28  30
ATOM     30  C   UNL     1      31.929  -0.046  52.270  1.00  0.00     0.227 A 
ATOM     31  N   UNL     1      32.314   0.908  53.109  1.00  0.00    -0.221 NA
ATOM     32  N   UNL     1      32.739  -0.575  51.318  1.00  0.00    -0.213 NA
ATOM     33  C   UNL     1      33.592   1.322  53.010  1.00  0.00     0.117 A 
ATOM     34  C   UNL     1      33.991  -0.110  51.238  1.00  0.00     0.077 A 
ATOM     35  C   UNL     1      34.436   0.847  52.081  1.00  0.00     0.049 A 
BRANCH  34  36
ATOM     36  C   UNL     1      34.848  -0.746  50.203  1.00  0.00     0.019 A 
ATOM     37  C   UNL     1      36.158  -0.304  49.960  1.00  0.00     0.013 A 
ATOM     38  C   UNL     1      34.356  -1.811  49.423  1.00  0.00     0.121 A 
ATOM     39  C   UNL     1      36.904  -0.920  48.963  1.00  0.00     0.021 A 
ATOM     40  N   UNL     1      35.067  -2.403  48.455  1.00  0.00    -0.264 NA
ATOM     41  C   UNL     1      36.326  -1.977  48.261  1.00  0.00     0.111 A 
ENDBRANCH  34  36
ENDBRANCH  28  30
ENDBRANCH   6  28
TORSDOF 7
ENDMDL
MODEL 2
REMARK VINA RESULT:   -12.418      1.193      1.869
REMARK INTER + INTRA:         -15.921
REMARK INTER:                 -14.506
REMARK INTRA:                  -1.415
REMARK CONF_INDEPENDENT:        2.088
REMARK UNBOUND:                -1.415
REMARK SMILES Cc1cn(-c2cc(NC(=O)c3ccc(C)c(Nc4nccc(-c5cccnc5)n4)c3)cc(C(F)(F)F)c2)cn1
REMARK SMILES IDX 11 1 12 2 13 3 14 4 15 5 16 6 30 7 9 8 10 9 8 10 7 12 6 13
REMARK SMILES IDX 31 14 5 15 32 16 37 17 4 18 3 19 38 20 2 21 39 22 1 23 33 24
REMARK SMILES IDX 34 25 35 26 36 27 17 28 18 30 19 31 29 32 20 33 22 34 21 35
REMARK SMILES IDX 23 36 24 37 28 38 25 39 27 40 26 41
REMARK H PARENT 8 11 17 29
ROOT
ATOM      1  C   UNL     1      28.176   1.879  53.087  1.00  0.00     0.042 A 
ATOM      2  C   UNL     1      27.798   0.556  53.363  1.00  0.00     0.014 A 
ATOM      3  C   UNL     1      28.683  -0.344  53.958  1.00  0.00     0.006 A 
ATOM      4  C   UNL     1      29.996   0.008  54.222  1.00  0.00    -0.027 A 
ATOM      5  C   UNL     1      30.953  -0.987  54.864  1.00  0.00     0.046 C 
ATOM      6  C   UNL     1      30.408   1.288  53.854  1.00  0.00     0.045 A 
ATOM      7  C   UNL     1      29.498   2.185  53.282  1.00  0.00     0.040 A 
ENDROOT
BRANCH   1   8
ATOM      8  C   UNL     1      27.352   2.855  52.349  1.00  0.00     0.255 C 
ATOM      9  O   UNL     1      27.665   3.033  51.197  1.00  0.00    -0.269 OA
ATOM     10  N   UNL     1      26.213   3.240  52.946  1.00  0.00    -0.322 N 
ATOM     11  H   UNL     1      26.038   2.878  53.894  1.00  0.00     0.170 HD
BRANCH  10  12
ATOM     12  C   UNL     1      25.251   4.081  52.402  1.00  0.00     0.044 A 
ATOM     13  C   UNL     1      24.323   4.757  53.233  1.00  0.00     0.052 A 
ATOM     14  C   UNL     1      25.097   4.187  51.003  1.00  0.00     0.039 A 
ATOM     15  C   UNL     1      23.357   5.613  52.696  1.00  0.00     0.049 A 
ATOM     16  C   UNL     1      24.127   5.076  50.458  1.00  0.00     0.060 A 
ATOM     17  C   UNL     1      23.252   5.747  51.316  1.00  0.00     0.039 A 
BRANCH  15  18
ATOM     18  N   UNL     1      22.462   6.319  53.513  1.00  0.00    -0.306 N 
ATOM     19  C   UNL     1      22.152   6.113  54.856  1.00  0.00     0.116 A 
ATOM     20  C   UNL     1      21.636   7.302  53.134  1.00  0.00     0.204 A 
ATOM     21  C   UNL     1      21.172   6.977  55.201  1.00  0.00     0.056 A 
ATOM     22  N   UNL     1      20.886   7.734  54.118  1.00  0.00    -0.242 NA
ATOM     23  C   UNL     1      20.517   7.149  56.550  1.00  0.00     0.068 C 
ENDBRANCH  15  18
BRANCH  16  24
ATOM     24  C   UNL     1      24.027   5.214  48.974  1.00  0.00     0.416 C 
ATOM     25  F   UNL     1      24.447   4.142  48.273  1.00  0.00    -0.166 F 
ATOM     26  F   UNL     1      22.761   5.316  48.589  1.00  0.00    -0.166 F 
ATOM     27  F   UNL     1      24.793   6.218  48.499  1.00  0.00    -0.166 F 
ENDBRANCH  16  24
ENDBRANCH  10  12
ENDBRANCH   1   8
BRANCH   6  28
ATOM     28  N   UNL     1      31.678   1.721  54.257  1.00  0.00    -0.324 N 
ATOM     29  H   UNL     1      31.775   2.423  55.004  1.00  0.00     0.170 HD
BRANCH  28  30
ATOM     30  C   UNL     1      32.813   1.193  53.637  1.00  0.00     0.227 A 
ATOM     31  N   UNL     1      34.089   1.347  53.966  1.00  0.00    -0.221 NA
ATOM     32  N   UNL     1      32.401   0.516  52.534  1.00  0.00    -0.213 NA
ATOM     33  C   UNL     1      34.996   0.758  53.164  1.00  0.00     0.117 A 
ATOM     34  C   UNL     1      33.341  -0.025  51.750  1.00  0.00     0.077 A 
ATOM     35  C   UNL     1      34.653   0.090  52.052  1.00  0.00     0.049 A 
BRANCH  34  36
ATOM     36  C   UNL     1      32.839  -0.784  50.575  1.00  0.00     0.019 A 
ATOM     37  C   UNL     1      31.465  -0.910  50.314  1.00  0.00     0.013 A 
ATOM     38  C   UNL     1      33.738  -1.415  49.693  1.00  0.00     0.121 A 
ATOM     39  C   UNL     1      31.053  -1.653  49.215  1.00  0.00     0.021 A 
ATOM     40  N   UNL     1      33.347  -2.138  48.637  1.00  0.00    -0.264 NA
ATOM     41  C   UNL     1      32.028  -2.221  48.396  1.00  0.00     0.111 A 
ENDBRANCH  34  36
ENDBRANCH  28  30
ENDBRANCH   6  28
TORSDOF 7
ENDMDL
MODEL 3
REMARK VINA RESULT:   -11.711      1.567      3.624
REMARK INTER + INTRA:         -15.438
REMARK INTER:                 -13.799
REMARK INTRA:                  -1.639
REMARK CONF_INDEPENDENT:        2.088
REMARK UNBOUND:                -1.639
REMARK SMILES Cc1cn(-c2cc(NC(=O)c3ccc(C)c(Nc4nccc(-c5cccnc5)n4)c3)cc(C(F)(F)F)c2)cn1
REMARK SMILES IDX 11 1 12 2 13 3 14 4 15 5 16 6 30 7 9 8 10 9 8 10 7 12 6 13
REMARK SMILES IDX 31 14 5 15 32 16 37 17 4 18 3 19 38 20 2 21 39 22 1 23 33 24
REMARK SMILES IDX 34 25 35 26 36 27 17 28 18 30 19 31 29 32 20 33 22 34 21 35
REMARK SMILES IDX 23 36 24 37 28 38 25 39 27 40 26 41
REMARK H PARENT 8 11 17 29
ROOT
ATOM      1  C   UNL     1      27.669   1.783  52.932  1.00  0.00     0.042 A 
ATOM      2  C   UNL     1      27.369   1.184  54.165  1.00  0.00     0.014 A 
ATOM      3  C   UNL     1      28.040   0.041  54.600  1.00  0.00     0.006 A 
ATOM      4  C   UNL     1      28.971  -0.597  53.795  1.00  0.00    -0.027 A 
ATOM      5  C   UNL     1      29.689  -1.848  54.280  1.00  0.00     0.046 C 
ATOM      6  C   UNL     1      29.198  -0.066  52.526  1.00  0.00     0.045 A 
ATOM      7  C   UNL     1      28.532   1.096  52.118  1.00  0.00     0.040 A 
ENDROOT
BRANCH   1   8
ATOM      8  C   UNL     1      26.926   2.912  52.340  1.00  0.00     0.255 C 
ATOM      9  O   UNL     1      27.257   3.221  51.221  1.00  0.00    -0.269 OA
ATOM     10  N   UNL     1      25.818   3.298  52.991  1.00  0.00    -0.322 N 
ATOM     11  H   UNL     1      25.611   2.825  53.882  1.00  0.00     0.170 HD
BRANCH  10  12
ATOM     12  C   UNL     1      24.926   4.277  52.574  1.00  0.00     0.044 A 
ATOM     13  C   UNL     1      24.200   5.049  53.515  1.00  0.00     0.052 A 
ATOM     14  C   UNL     1      24.631   4.443  51.203  1.00  0.00     0.039 A 
ATOM     15  C   UNL     1      23.308   6.043  53.105  1.00  0.00     0.049 A 
ATOM     16  C   UNL     1      23.738   5.472  50.786  1.00  0.00     0.060 A 
ATOM     17  C   UNL     1      23.067   6.230  51.748  1.00  0.00     0.039 A 
BRANCH  15  18
ATOM     18  N   UNL     1      22.617   6.841  54.029  1.00  0.00    -0.306 N 
ATOM     19  C   UNL     1      21.532   6.505  54.838  1.00  0.00     0.116 A 
ATOM     20  C   UNL     1      22.806   8.145  54.261  1.00  0.00     0.204 A 
ATOM     21  C   UNL     1      21.142   7.614  55.503  1.00  0.00     0.056 A 
ATOM     22  N   UNL     1      21.972   8.622  55.153  1.00  0.00    -0.242 NA
ATOM     23  C   UNL     1      20.025   7.749  56.509  1.00  0.00     0.068 C 
ENDBRANCH  15  18
BRANCH  16  24
ATOM     24  C   UNL     1      23.491   5.665  49.325  1.00  0.00     0.416 C 
ATOM     25  F   UNL     1      23.525   4.537  48.588  1.00  0.00    -0.166 F 
ATOM     26  F   UNL     1      22.257   6.101  49.104  1.00  0.00    -0.166 F 
ATOM     27  F   UNL     1      24.426   6.446  48.746  1.00  0.00    -0.166 F 
ENDBRANCH  16  24
ENDBRANCH  10  12
ENDBRANCH   1   8
BRANCH   6  28
ATOM     28  N   UNL     1      30.246  -0.594  51.761  1.00  0.00    -0.324 N 
ATOM     29  H   UNL     1      30.076  -1.383  51.122  1.00  0.00     0.170 HD
BRANCH  28  30
ATOM     30  C   UNL     1      31.523  -0.041  51.872  1.00  0.00     0.227 A 
ATOM     31  N   UNL     1      32.622  -0.341  51.191  1.00  0.00    -0.221 NA
ATOM     32  N   UNL     1      31.498   0.852  52.894  1.00  0.00    -0.213 NA
ATOM     33  C   UNL     1      33.744   0.321  51.531  1.00  0.00     0.117 A 
ATOM     34  C   UNL     1      32.645   1.461  53.216  1.00  0.00     0.077 A 
ATOM     35  C   UNL     1      33.786   1.203  52.542  1.00  0.00     0.049 A 
BRANCH  34  36
ATOM     36  C   UNL     1      32.557   2.455  54.318  1.00  0.00     0.019 A 
ATOM     37  C   UNL     1      31.509   2.427  55.252  1.00  0.00     0.013 A 
ATOM     38  C   UNL     1      33.525   3.471  54.444  1.00  0.00     0.121 A 
ATOM     39  C   UNL     1      31.464   3.397  56.246  1.00  0.00     0.021 A 
ATOM     40  N   UNL     1      33.483   4.413  55.395  1.00  0.00    -0.264 NA
ATOM     41  C   UNL     1      32.484   4.347  56.290  1.00  0.00     0.111 A 
ENDBRANCH  34  36
ENDBRANCH  28  30
ENDBRANCH   6  28
TORSDOF 7
ENDMDL
MODEL 4
REMARK VINA RESULT:   -11.542      4.132     11.237
REMARK INTER + INTRA:         -14.795
REMARK INTER:                 -13.630
REMARK INTRA:                  -1.165
REMARK CONF_INDEPENDENT:        2.088
REMARK UNBOUND:                -1.165
REMARK SMILES Cc1cn(-c2cc(NC(=O)c3ccc(C)c(Nc4nccc(-c5cccnc5)n4)c3)cc(C(F)(F)F)c2)cn1
REMARK SMILES IDX 11 1 12 2 13 3 14 4 15 5 16 6 30 7 9 8 10 9 8 10 7 12 6 13
REMARK SMILES IDX 31 14 5 15 32 16 37 17 4 18 3 19 38 20 2 21 39 22 1 23 33 24
REMARK SMILES IDX 34 25 35 26 36 27 17 28 18 30 19 31 29 32 20 33 22 34 21 35
REMARK SMILES IDX 23 36 24 37 28 38 25 39 27 40 26 41
REMARK H PARENT 8 11 17 29
ROOT
ATOM      1  C   UNL     1      25.879   3.859  52.044  1.00  0.00     0.042 A 
ATOM      2  C   UNL     1      25.272   4.371  50.887  1.00  0.00     0.014 A 
ATOM      3  C   UNL     1      24.151   5.199  50.960  1.00  0.00     0.006 A 
ATOM      4  C   UNL     1      23.543   5.479  52.173  1.00  0.00    -0.027 A 
ATOM      5  C   UNL     1      22.315   6.378  52.236  1.00  0.00     0.046 C 
ATOM      6  C   UNL     1      24.079   4.889  53.316  1.00  0.00     0.045 A 
ATOM      7  C   UNL     1      25.220   4.082  53.225  1.00  0.00     0.040 A 
ENDROOT
BRANCH   1   8
ATOM      8  C   UNL     1      26.984   2.880  52.054  1.00  0.00     0.255 C 
ATOM      9  O   UNL     1      27.669   2.861  51.061  1.00  0.00    -0.269 OA
ATOM     10  N   UNL     1      27.258   2.309  53.237  1.00  0.00    -0.322 N 
ATOM     11  H   UNL     1      26.638   2.546  54.024  1.00  0.00     0.170 HD
BRANCH  10  12
ATOM     12  C   UNL     1      28.300   1.428  53.495  1.00  0.00     0.044 A 
ATOM     13  C   UNL     1      29.596   1.662  52.974  1.00  0.00     0.052 A 
ATOM     14  C   UNL     1      28.062   0.217  54.182  1.00  0.00     0.039 A 
ATOM     15  C   UNL     1      30.654   0.787  53.238  1.00  0.00     0.049 A 
ATOM     16  C   UNL     1      29.145  -0.662  54.468  1.00  0.00     0.060 A 
ATOM     17  C   UNL     1      30.415  -0.378  53.961  1.00  0.00     0.039 A 
BRANCH  15  18
ATOM     18  N   UNL     1      31.951   1.032  52.762  1.00  0.00    -0.306 N 
ATOM     19  C   UNL     1      32.565   0.551  51.607  1.00  0.00     0.116 A 
ATOM     20  C   UNL     1      32.915   1.721  53.383  1.00  0.00     0.204 A 
ATOM     21  C   UNL     1      33.846   0.979  51.601  1.00  0.00     0.056 A 
ATOM     22  N   UNL     1      34.036   1.737  52.704  1.00  0.00    -0.242 NA
ATOM     23  C   UNL     1      34.903   0.733  50.551  1.00  0.00     0.068 C 
ENDBRANCH  15  18
BRANCH  16  24
ATOM     24  C   UNL     1      28.876  -1.908  55.249  1.00  0.00     0.416 C 
ATOM     25  F   UNL     1      28.041  -2.783  54.655  1.00  0.00    -0.166 F 
ATOM     26  F   UNL     1      29.981  -2.632  55.387  1.00  0.00    -0.166 F 
ATOM     27  F   UNL     1      28.275  -1.653  56.429  1.00  0.00    -0.166 F 
ENDBRANCH  16  24
ENDBRANCH  10  12
ENDBRANCH   1   8
BRANCH   6  28
ATOM     28  N   UNL     1      23.584   5.285  54.565  1.00  0.00    -0.324 N 
ATOM     29  H   UNL     1      22.913   4.690  55.071  1.00  0.00     0.170 HD
BRANCH  28  30
ATOM     30  C   UNL     1      24.009   6.494  55.120  1.00  0.00     0.227 A 
ATOM     31  N   UNL     1      23.999   7.707  54.582  1.00  0.00    -0.221 NA
ATOM     32  N   UNL     1      24.540   6.223  56.341  1.00  0.00    -0.213 NA
ATOM     33  C   UNL     1      24.513   8.704  55.326  1.00  0.00     0.117 A 
ATOM     34  C   UNL     1      25.068   7.241  57.029  1.00  0.00     0.077 A 
ATOM     35  C   UNL     1      25.065   8.497  56.532  1.00  0.00     0.049 A 
BRANCH  34  36
ATOM     36  C   UNL     1      25.604   6.899  58.373  1.00  0.00     0.019 A 
ATOM     37  C   UNL     1      24.780   6.878  59.510  1.00  0.00     0.013 A 
ATOM     38  C   UNL     1      26.969   6.598  58.543  1.00  0.00     0.121 A 
ATOM     39  C   UNL     1      25.340   6.576  60.744  1.00  0.00     0.021 A 
ATOM     40  N   UNL     1      27.517   6.313  59.732  1.00  0.00    -0.264 NA
ATOM     41  C   UNL     1      26.701   6.276  60.798  1.00  0.00     0.111 A 
ENDBRANCH  34  36
ENDBRANCH  28  30
ENDBRANCH   6  28
TORSDOF 7
ENDMDL
MODEL 5
REMARK VINA RESULT:   -11.477      2.094      3.169
REMARK INTER + INTRA:         -14.869
REMARK INTER:                 -13.565
REMARK INTRA:                  -1.304
REMARK CONF_INDEPENDENT:        2.088
REMARK UNBOUND:                -1.304
REMARK SMILES Cc1cn(-c2cc(NC(=O)c3ccc(C)c(Nc4nccc(-c5cccnc5)n4)c3)cc(C(F)(F)F)c2)cn1
REMARK SMILES IDX 11 1 12 2 13 3 14 4 15 5 16 6 30 7 9 8 10 9 8 10 7 12 6 13
REMARK SMILES IDX 31 14 5 15 32 16 37 17 4 18 3 19 38 20 2 21 39 22 1 23 33 24
REMARK SMILES IDX 34 25 35 26 36 27 17 28 18 30 19 31 29 32 20 33 22 34 21 35
REMARK SMILES IDX 23 36 24 37 28 38 25 39 27 40 26 41
REMARK H PARENT 8 11 17 29
ROOT
ATOM      1  C   UNL     1      26.999   2.408  52.402  1.00  0.00     0.042 A 
ATOM      2  C   UNL     1      27.146   1.036  52.149  1.00  0.00     0.014 A 
ATOM      3  C   UNL     1      27.918   0.222  52.980  1.00  0.00     0.006 A 
ATOM      4  C   UNL     1      28.638   0.754  54.038  1.00  0.00    -0.027 A 
ATOM      5  C   UNL     1      29.482  -0.144  54.931  1.00  0.00     0.046 C 
ATOM      6  C   UNL     1      28.579   2.133  54.232  1.00  0.00     0.045 A 
ATOM      7  C   UNL     1      27.778   2.928  53.402  1.00  0.00     0.040 A 
ENDROOT
BRANCH   1   8
ATOM      8  C   UNL     1      26.309   3.360  51.509  1.00  0.00     0.255 C 
ATOM      9  O   UNL     1      26.533   3.222  50.331  1.00  0.00    -0.269 OA
ATOM     10  N   UNL     1      25.335   4.094  52.067  1.00  0.00    -0.322 N 
ATOM     11  H   UNL     1      25.189   3.985  53.081  1.00  0.00     0.170 HD
BRANCH  10  12
ATOM     12  C   UNL     1      24.504   4.987  51.402  1.00  0.00     0.044 A 
ATOM     13  C   UNL     1      23.824   6.011  52.108  1.00  0.00     0.052 A 
ATOM     14  C   UNL     1      24.223   4.821  50.029  1.00  0.00     0.039 A 
ATOM     15  C   UNL     1      22.994   6.921  51.447  1.00  0.00     0.049 A 
ATOM     16  C   UNL     1      23.395   5.762  49.353  1.00  0.00     0.060 A 
ATOM     17  C   UNL     1      22.768   6.775  50.082  1.00  0.00     0.039 A 
BRANCH  15  18
ATOM     18  N   UNL     1      22.350   7.964  52.130  1.00  0.00    -0.306 N 
ATOM     19  C   UNL     1      21.525   7.898  53.251  1.00  0.00     0.116 A 
ATOM     20  C   UNL     1      22.324   9.255  51.779  1.00  0.00     0.204 A 
ATOM     21  C   UNL     1      21.062   9.141  53.507  1.00  0.00     0.056 A 
ATOM     22  N   UNL     1      21.599   9.981  52.595  1.00  0.00    -0.242 NA
ATOM     23  C   UNL     1      20.151   9.580  54.628  1.00  0.00     0.068 C 
ENDBRANCH  15  18
BRANCH  16  24
ATOM     24  C   UNL     1      23.163   5.596  47.886  1.00  0.00     0.416 C 
ATOM     25  F   UNL     1      21.875   5.417  47.529  1.00  0.00    -0.166 F 
ATOM     26  F   UNL     1      23.481   6.702  47.224  1.00  0.00    -0.166 F 
ATOM     27  F   UNL     1      23.780   4.503  47.390  1.00  0.00    -0.166 F 
ENDBRANCH  16  24
ENDBRANCH  10  12
ENDBRANCH   1   8
BRANCH   6  28
ATOM     28  N   UNL     1      29.163   2.670  55.386  1.00  0.00    -0.324 N 
ATOM     29  H   UNL     1      28.589   2.853  56.221  1.00  0.00     0.170 HD
BRANCH  28  30
ATOM     30  C   UNL     1      30.530   2.955  55.395  1.00  0.00     0.227 A 
ATOM     31  N   UNL     1      31.185   3.868  56.100  1.00  0.00    -0.221 NA
ATOM     32  N   UNL     1      31.121   2.164  54.463  1.00  0.00    -0.213 NA
ATOM     33  C   UNL     1      32.511   3.964  55.884  1.00  0.00     0.117 A 
ATOM     34  C   UNL     1      32.435   2.318  54.261  1.00  0.00     0.077 A 
ATOM     35  C   UNL     1      33.149   3.221  54.966  1.00  0.00     0.049 A 
BRANCH  34  36
ATOM     36  C   UNL     1      33.041   1.405  53.257  1.00  0.00     0.019 A 
ATOM     37  C   UNL     1      32.421   0.201  52.887  1.00  0.00     0.013 A 
ATOM     38  C   UNL     1      34.275   1.722  52.655  1.00  0.00     0.121 A 
ATOM     39  C   UNL     1      33.046  -0.625  51.962  1.00  0.00     0.021 A 
ATOM     40  N   UNL     1      34.886   0.926  51.768  1.00  0.00    -0.264 NA
ATOM     41  C   UNL     1      34.258  -0.207  51.414  1.00  0.00     0.111 A 
ENDBRANCH  34  36
ENDBRANCH  28  30
ENDBRANCH   6  28
TORSDOF 7
ENDMDL
MODEL 6
REMARK VINA RESULT:   -11.306      3.727     11.703
REMARK INTER + INTRA:         -14.540
REMARK INTER:                 -13.394
REMARK INTRA:                  -1.146
REMARK CONF_INDEPENDENT:        2.088
REMARK UNBOUND:                -1.146
REMARK SMILES Cc1cn(-c2cc(NC(=O)c3ccc(C)c(Nc4nccc(-c5cccnc5)n4)c3)cc(C(F)(F)F)c2)cn1
REMARK SMILES IDX 11 1 12 2 13 3 14 4 15 5 16 6 30 7 9 8 10 9 8 10 7 12 6 13
REMARK SMILES IDX 31 14 5 15 32 16 37 17 4 18 3 19 38 20 2 21 39 22 1 23 33 24
REMARK SMILES IDX 34 25 35 26 36 27 17 28 18 30 19 31 29 32 20 33 22 34 21 35
REMARK SMILES IDX 23 36 24 37 28 38 25 39 27 40 26 41
REMARK H PARENT 8 11 17 29
ROOT
ATOM      1  C   UNL     1      25.859   3.852  51.772  1.00  0.00     0.042 A 
ATOM      2  C   UNL     1      25.245   4.231  50.569  1.00  0.00     0.014 A 
ATOM      3  C   UNL     1      24.129   5.068  50.554  1.00  0.00     0.006 A 
ATOM      4  C   UNL     1      23.533   5.492  51.731  1.00  0.00    -0.027 A 
ATOM      5  C   UNL     1      22.312   6.399  51.700  1.00  0.00     0.046 C 
ATOM      6  C   UNL     1      24.076   5.035  52.931  1.00  0.00     0.045 A 
ATOM      7  C   UNL     1      25.212   4.215  52.924  1.00  0.00     0.040 A 
ENDROOT
BRANCH   1   8
ATOM      8  C   UNL     1      26.958   2.873  51.887  1.00  0.00     0.255 C 
ATOM      9  O   UNL     1      27.718   2.835  50.950  1.00  0.00    -0.269 OA
ATOM     10  N   UNL     1      27.139   2.326  53.098  1.00  0.00    -0.322 N 
ATOM     11  H   UNL     1      26.461   2.578  53.831  1.00  0.00     0.170 HD
BRANCH  10  12
ATOM     12  C   UNL     1      28.157   1.450  53.454  1.00  0.00     0.044 A 
ATOM     13  C   UNL     1      29.496   1.692  53.058  1.00  0.00     0.052 A 
ATOM     14  C   UNL     1      27.863   0.238  54.115  1.00  0.00     0.039 A 
ATOM     15  C   UNL     1      30.528   0.822  53.419  1.00  0.00     0.049 A 
ATOM     16  C   UNL     1      28.919  -0.636  54.502  1.00  0.00     0.060 A 
ATOM     17  C   UNL     1      30.229  -0.344  54.116  1.00  0.00     0.039 A 
BRANCH  15  18
ATOM     18  N   UNL     1      31.863   1.074  53.068  1.00  0.00    -0.306 N 
ATOM     19  C   UNL     1      32.604   0.550  52.010  1.00  0.00     0.116 A 
ATOM     20  C   UNL     1      32.744   1.818  53.747  1.00  0.00     0.204 A 
ATOM     21  C   UNL     1      33.870   1.009  52.114  1.00  0.00     0.056 A 
ATOM     22  N   UNL     1      33.929   1.826  53.188  1.00  0.00    -0.242 NA
ATOM     23  C   UNL     1      35.036   0.735  51.194  1.00  0.00     0.068 C 
ENDBRANCH  15  18
BRANCH  16  24
ATOM     24  C   UNL     1      28.584  -1.883  55.253  1.00  0.00     0.416 C 
ATOM     25  F   UNL     1      29.604  -2.753  55.397  1.00  0.00    -0.166 F 
ATOM     26  F   UNL     1      28.274  -1.611  56.516  1.00  0.00    -0.166 F 
ATOM     27  F   UNL     1      27.633  -2.615  54.636  1.00  0.00    -0.166 F 
ENDBRANCH  16  24
ENDBRANCH  10  12
ENDBRANCH   1   8
BRANCH   6  28
ATOM     28  N   UNL     1      23.595   5.576  54.130  1.00  0.00    -0.324 N 
ATOM     29  H   UNL     1      22.587   5.560  54.339  1.00  0.00     0.170 HD
BRANCH  28  30
ATOM     30  C   UNL     1      24.493   6.139  55.039  1.00  0.00     0.227 A 
ATOM     31  N   UNL     1      25.813   6.241  54.950  1.00  0.00    -0.221 NA
ATOM     32  N   UNL     1      23.786   6.523  56.133  1.00  0.00    -0.213 NA
ATOM     33  C   UNL     1      26.450   6.794  56.000  1.00  0.00     0.117 A 
ATOM     34  C   UNL     1      24.466   7.038  57.164  1.00  0.00     0.077 A 
ATOM     35  C   UNL     1      25.808   7.179  57.114  1.00  0.00     0.049 A 
BRANCH  34  36
ATOM     36  C   UNL     1      23.643   7.475  58.322  1.00  0.00     0.019 A 
ATOM     37  C   UNL     1      22.246   7.337  58.325  1.00  0.00     0.013 A 
ATOM     38  C   UNL     1      24.251   8.059  59.451  1.00  0.00     0.121 A 
ATOM     39  C   UNL     1      21.526   7.787  59.424  1.00  0.00     0.021 A 
ATOM     40  N   UNL     1      23.561   8.501  60.510  1.00  0.00    -0.264 NA
ATOM     41  C   UNL     1      22.229   8.334  60.498  1.00  0.00     0.111 A 
ENDBRANCH  34  36
ENDBRANCH  28  30
ENDBRANCH   6  28
TORSDOF 7
ENDMDL
MODEL 7
REMARK VINA RESULT:   -11.269      2.506      4.070
REMARK INTER + INTRA:         -14.649
REMARK INTER:                 -13.357
REMARK INTRA:                  -1.292
REMARK CONF_INDEPENDENT:        2.088
REMARK UNBOUND:                -1.292
REMARK SMILES Cc1cn(-c2cc(NC(=O)c3ccc(C)c(Nc4nccc(-c5cccnc5)n4)c3)cc(C(F)(F)F)c2)cn1
REMARK SMILES IDX 11 1 12 2 13 3 14 4 15 5 16 6 30 7 9 8 10 9 8 10 7 12 6 13
REMARK SMILES IDX 31 14 5 15 32 16 37 17 4 18 3 19 38 20 2 21 39 22 1 23 33 24
REMARK SMILES IDX 34 25 35 26 36 27 17 28 18 30 19 31 29 32 20 33 22 34 21 35
REMARK SMILES IDX 23 36 24 37 28 38 25 39 27 40 26 41
REMARK H PARENT 8 11 17 29
ROOT
ATOM      1  C   UNL     1      28.261   1.793  53.435  1.00  0.00     0.042 A 
ATOM      2  C   UNL     1      27.950   0.440  53.640  1.00  0.00     0.014 A 
ATOM      3  C   UNL     1      28.912  -0.467  54.086  1.00  0.00     0.006 A 
ATOM      4  C   UNL     1      30.232  -0.085  54.264  1.00  0.00    -0.027 A 
ATOM      5  C   UNL     1      31.273  -1.087  54.744  1.00  0.00     0.046 C 
ATOM      6  C   UNL     1      30.569   1.234  53.962  1.00  0.00     0.045 A 
ATOM      7  C   UNL     1      29.584   2.135  53.540  1.00  0.00     0.040 A 
ENDROOT
BRANCH   1   8
ATOM      8  C   UNL     1      27.344   2.789  52.847  1.00  0.00     0.255 C 
ATOM      9  O   UNL     1      27.660   3.207  51.761  1.00  0.00    -0.269 OA
ATOM     10  N   UNL     1      26.155   2.929  53.453  1.00  0.00    -0.322 N 
ATOM     11  H   UNL     1      26.001   2.384  54.313  1.00  0.00     0.170 HD
BRANCH  10  12
ATOM     12  C   UNL     1      25.112   3.742  53.027  1.00  0.00     0.044 A 
ATOM     13  C   UNL     1      24.913   4.006  51.649  1.00  0.00     0.052 A 
ATOM     14  C   UNL     1      24.301   4.420  53.963  1.00  0.00     0.039 A 
ATOM     15  C   UNL     1      23.861   4.815  51.209  1.00  0.00     0.049 A 
ATOM     16  C   UNL     1      23.216   5.225  53.513  1.00  0.00     0.060 A 
ATOM     17  C   UNL     1      23.038   5.435  52.143  1.00  0.00     0.039 A 
BRANCH  15  18
ATOM     18  N   UNL     1      23.630   5.048  49.845  1.00  0.00    -0.306 N 
ATOM     19  C   UNL     1      23.794   6.226  49.119  1.00  0.00     0.116 A 
ATOM     20  C   UNL     1      23.106   4.190  48.963  1.00  0.00     0.204 A 
ATOM     21  C   UNL     1      23.368   6.006  47.856  1.00  0.00     0.056 A 
ATOM     22  N   UNL     1      22.972   4.717  47.770  1.00  0.00    -0.242 NA
ATOM     23  C   UNL     1      23.364   6.972  46.695  1.00  0.00     0.068 C 
ENDBRANCH  15  18
BRANCH  16  24
ATOM     24  C   UNL     1      22.337   5.883  54.526  1.00  0.00     0.416 C 
ATOM     25  F   UNL     1      21.435   5.070  55.110  1.00  0.00    -0.166 F 
ATOM     26  F   UNL     1      23.043   6.304  55.569  1.00  0.00    -0.166 F 
ATOM     27  F   UNL     1      21.577   6.860  53.989  1.00  0.00    -0.166 F 
ENDBRANCH  16  24
ENDBRANCH  10  12
ENDBRANCH   1   8
BRANCH   6  28
ATOM     28  N   UNL     1      31.855   1.684  54.288  1.00  0.00    -0.324 N 
ATOM     29  H   UNL     1      31.983   2.427  54.989  1.00  0.00     0.170 HD
BRANCH  28  30
ATOM     30  C   UNL     1      32.962   1.117  53.654  1.00  0.00     0.227 A 
ATOM     31  N   UNL     1      34.246   1.209  53.979  1.00  0.00    -0.221 NA
ATOM     32  N   UNL     1      32.518   0.479  52.540  1.00  0.00    -0.213 NA
ATOM     33  C   UNL     1      35.123   0.595  53.163  1.00  0.00     0.117 A 
ATOM     34  C   UNL     1      33.430  -0.089  51.743  1.00  0.00     0.077 A 
ATOM     35  C   UNL     1      34.746  -0.038  52.041  1.00  0.00     0.049 A 
BRANCH  34  36
ATOM     36  C   UNL     1      32.890  -0.804  50.557  1.00  0.00     0.019 A 
ATOM     37  C   UNL     1      31.508  -0.952  50.354  1.00  0.00     0.013 A 
ATOM     38  C   UNL     1      33.760  -1.370  49.606  1.00  0.00     0.121 A 
ATOM     39  C   UNL     1      31.061  -1.652  49.240  1.00  0.00     0.021 A 
ATOM     40  N   UNL     1      33.336  -2.052  48.535  1.00  0.00    -0.264 NA
ATOM     41  C   UNL     1      32.009  -2.157  48.351  1.00  0.00     0.111 A 
ENDBRANCH  34  36
ENDBRANCH  28  30
ENDBRANCH   6  28
TORSDOF 7
ENDMDL
MODEL 8
REMARK VINA RESULT:   -11.145      3.659     12.059
REMARK INTER + INTRA:         -14.461
REMARK INTER:                 -13.233
REMARK INTRA:                  -1.228
REMARK CONF_INDEPENDENT:        2.088
REMARK UNBOUND:                -1.228
REMARK SMILES Cc1cn(-c2cc(NC(=O)c3ccc(C)c(Nc4nccc(-c5cccnc5)n4)c3)cc(C(F)(F)F)c2)cn1
REMARK SMILES IDX 11 1 12 2 13 3 14 4 15 5 16 6 30 7 9 8 10 9 8 10 7 12 6 13
REMARK SMILES IDX 31 14 5 15 32 16 37 17 4 18 3 19 38 20 2 21 39 22 1 23 33 24
REMARK SMILES IDX 34 25 35 26 36 27 17 28 18 30 19 31 29 32 20 33 22 34 21 35
REMARK SMILES IDX 23 36 24 37 28 38 25 39 27 40 26 41
REMARK H PARENT 8 11 17 29
ROOT
ATOM      1  C   UNL     1      26.180   3.491  51.621  1.00  0.00     0.042 A 
ATOM      2  C   UNL     1      25.557   3.809  50.405  1.00  0.00     0.014 A 
ATOM      3  C   UNL     1      24.298   4.409  50.368  1.00  0.00     0.006 A 
ATOM      4  C   UNL     1      23.577   4.638  51.529  1.00  0.00    -0.027 A 
ATOM      5  C   UNL     1      22.201   5.286  51.473  1.00  0.00     0.046 C 
ATOM      6  C   UNL     1      24.146   4.230  52.734  1.00  0.00     0.045 A 
ATOM      7  C   UNL     1      25.422   3.652  52.752  1.00  0.00     0.040 A 
ENDROOT
BRANCH   1   8
ATOM      8  C   UNL     1      27.447   2.745  51.750  1.00  0.00     0.255 C 
ATOM      9  O   UNL     1      28.391   3.222  51.170  1.00  0.00    -0.269 OA
ATOM     10  N   UNL     1      27.473   1.781  52.683  1.00  0.00    -0.322 N 
ATOM     11  H   UNL     1      26.594   1.593  53.186  1.00  0.00     0.170 HD
BRANCH  10  12
ATOM     12  C   UNL     1      28.577   1.013  53.032  1.00  0.00     0.044 A 
ATOM     13  C   UNL     1      29.863   1.314  52.520  1.00  0.00     0.052 A 
ATOM     14  C   UNL     1      28.421  -0.156  53.809  1.00  0.00     0.039 A 
ATOM     15  C   UNL     1      30.981   0.553  52.873  1.00  0.00     0.049 A 
ATOM     16  C   UNL     1      29.565  -0.917  54.185  1.00  0.00     0.060 A 
ATOM     17  C   UNL     1      30.820  -0.567  53.682  1.00  0.00     0.039 A 
BRANCH  15  18
ATOM     18  N   UNL     1      32.266   0.868  52.405  1.00  0.00    -0.306 N 
ATOM     19  C   UNL     1      32.935   0.377  51.286  1.00  0.00     0.116 A 
ATOM     20  C   UNL     1      33.166   1.656  53.005  1.00  0.00     0.204 A 
ATOM     21  C   UNL     1      34.182   0.896  51.277  1.00  0.00     0.056 A 
ATOM     22  N   UNL     1      34.296   1.719  52.343  1.00  0.00    -0.242 NA
ATOM     23  C   UNL     1      35.272   0.677  50.257  1.00  0.00     0.068 C 
ENDBRANCH  15  18
BRANCH  16  24
ATOM     24  C   UNL     1      29.378  -2.116  55.058  1.00  0.00     0.416 C 
ATOM     25  F   UNL     1      28.748  -3.153  54.473  1.00  0.00    -0.166 F 
ATOM     26  F   UNL     1      30.547  -2.654  55.386  1.00  0.00    -0.166 F 
ATOM     27  F   UNL     1      28.612  -1.851  56.136  1.00  0.00    -0.166 F 
ENDBRANCH  16  24
ENDBRANCH  10  12
ENDBRANCH   1   8
BRANCH   6  28
ATOM     28  N   UNL     1      23.512   4.596  53.928  1.00  0.00    -0.324 N 
ATOM     29  H   UNL     1      22.888   3.933  54.409  1.00  0.00     0.170 HD
BRANCH  28  30
ATOM     30  C   UNL     1      23.734   5.867  54.462  1.00  0.00     0.227 A 
ATOM     31  N   UNL     1      24.716   6.277  55.255  1.00  0.00    -0.221 NA
ATOM     32  N   UNL     1      22.694   6.657  54.091  1.00  0.00    -0.213 NA
ATOM     33  C   UNL     1      24.668   7.558  55.665  1.00  0.00     0.117 A 
ATOM     34  C   UNL     1      22.674   7.914  54.549  1.00  0.00     0.077 A 
ATOM     35  C   UNL     1      23.659   8.383  55.345  1.00  0.00     0.049 A 
BRANCH  34  36
ATOM     36  C   UNL     1      21.533   8.747  54.087  1.00  0.00     0.019 A 
ATOM     37  C   UNL     1      20.202   8.375  54.335  1.00  0.00     0.013 A 
ATOM     38  C   UNL     1      21.762   9.937  53.368  1.00  0.00     0.121 A 
ATOM     39  C   UNL     1      19.176   9.181  53.857  1.00  0.00     0.021 A 
ATOM     40  N   UNL     1      20.777  10.713  52.898  1.00  0.00    -0.264 NA
ATOM     41  C   UNL     1      19.514  10.347  53.171  1.00  0.00     0.111 A 
ENDBRANCH  34  36
ENDBRANCH  28  30
ENDBRANCH   6  28
TORSDOF 7
ENDMDL
MODEL 9
REMARK VINA RESULT:   -11.088      1.750      2.610
REMARK INTER + INTRA:         -14.375
REMARK INTER:                 -13.176
REMARK INTRA:                  -1.199
REMARK CONF_INDEPENDENT:        2.088
REMARK UNBOUND:                -1.199
REMARK SMILES Cc1cn(-c2cc(NC(=O)c3ccc(C)c(Nc4nccc(-c5cccnc5)n4)c3)cc(C(F)(F)F)c2)cn1
REMARK SMILES IDX 11 1 12 2 13 3 14 4 15 5 16 6 30 7 9 8 10 9 8 10 7 12 6 13
REMARK SMILES IDX 31 14 5 15 32 16 37 17 4 18 3 19 38 20 2 21 39 22 1 23 33 24
REMARK SMILES IDX 34 25 35 26 36 27 17 28 18 30 19 31 29 32 20 33 22 34 21 35
REMARK SMILES IDX 23 36 24 37 28 38 25 39 27 40 26 41
REMARK H PARENT 8 11 17 29
ROOT
ATOM      1  C   UNL     1      27.043   2.410  52.556  1.00  0.00     0.042 A 
ATOM      2  C   UNL     1      27.146   1.312  51.689  1.00  0.00     0.014 A 
ATOM      3  C   UNL     1      28.074   0.293  51.914  1.00  0.00     0.006 A 
ATOM      4  C   UNL     1      28.985   0.368  52.955  1.00  0.00    -0.027 A 
ATOM      5  C   UNL     1      29.997  -0.746  53.183  1.00  0.00     0.046 C 
ATOM      6  C   UNL     1      28.956   1.507  53.758  1.00  0.00     0.045 A 
ATOM      7  C   UNL     1      28.001   2.506  53.532  1.00  0.00     0.040 A 
ENDROOT
BRANCH   1   8
ATOM      8  C   UNL     1      26.183   3.588  52.326  1.00  0.00     0.255 C 
ATOM      9  O   UNL     1      26.086   3.942  51.177  1.00  0.00    -0.269 OA
ATOM     10  N   UNL     1      25.419   3.973  53.359  1.00  0.00    -0.322 N 
ATOM     11  H   UNL     1      25.539   3.462  54.246  1.00  0.00     0.170 HD
BRANCH  10  12
ATOM     12  C   UNL     1      24.480   4.996  53.343  1.00  0.00     0.044 A 
ATOM     13  C   UNL     1      23.745   5.329  54.508  1.00  0.00     0.052 A 
ATOM     14  C   UNL     1      24.150   5.648  52.134  1.00  0.00     0.039 A 
ATOM     15  C   UNL     1      22.806   6.364  54.503  1.00  0.00     0.049 A 
ATOM     16  C   UNL     1      23.209   6.717  52.137  1.00  0.00     0.060 A 
ATOM     17  C   UNL     1      22.529   7.032  53.315  1.00  0.00     0.039 A 
BRANCH  15  18
ATOM     18  N   UNL     1      22.104   6.728  55.662  1.00  0.00    -0.306 N 
ATOM     19  C   UNL     1      22.599   7.010  56.934  1.00  0.00     0.116 A 
ATOM     20  C   UNL     1      20.775   6.792  55.807  1.00  0.00     0.204 A 
ATOM     21  C   UNL     1      21.550   7.228  57.757  1.00  0.00     0.056 A 
ATOM     22  N   UNL     1      20.419   7.119  57.025  1.00  0.00    -0.242 NA
ATOM     23  C   UNL     1      21.579   7.587  59.223  1.00  0.00     0.068 C 
ENDBRANCH  15  18
BRANCH  16  24
ATOM     24  C   UNL     1      22.923   7.430  50.855  1.00  0.00     0.416 C 
ATOM     25  F   UNL     1      24.012   7.767  50.136  1.00  0.00    -0.166 F 
ATOM     26  F   UNL     1      22.268   6.644  50.008  1.00  0.00    -0.166 F 
ATOM     27  F   UNL     1      22.300   8.610  51.051  1.00  0.00    -0.166 F 
ENDBRANCH  16  24
ENDBRANCH  10  12
ENDBRANCH   1   8
BRANCH   6  28
ATOM     28  N   UNL     1      29.754   1.531  54.909  1.00  0.00    -0.324 N 
ATOM     29  H   UNL     1      29.396   1.153  55.797  1.00  0.00     0.170 HD
BRANCH  28  30
ATOM     30  C   UNL     1      31.039   2.073  54.843  1.00  0.00     0.227 A 
ATOM     31  N   UNL     1      31.555   3.081  55.536  1.00  0.00    -0.221 NA
ATOM     32  N   UNL     1      31.706   1.431  53.850  1.00  0.00    -0.213 NA
ATOM     33  C   UNL     1      32.820   3.434  55.241  1.00  0.00     0.117 A 
ATOM     34  C   UNL     1      32.950   1.838  53.571  1.00  0.00     0.077 A 
ATOM     35  C   UNL     1      33.525   2.847  54.260  1.00  0.00     0.049 A 
BRANCH  34  36
ATOM     36  C   UNL     1      33.650   1.080  52.501  1.00  0.00     0.019 A 
ATOM     37  C   UNL     1      34.481   1.722  51.569  1.00  0.00     0.013 A 
ATOM     38  C   UNL     1      33.482  -0.313  52.385  1.00  0.00     0.121 A 
ATOM     39  C   UNL     1      35.089   0.966  50.574  1.00  0.00     0.021 A 
ATOM     40  N   UNL     1      34.060  -1.046  51.424  1.00  0.00    -0.264 NA
ATOM     41  C   UNL     1      34.869  -0.411  50.561  1.00  0.00     0.111 A 
ENDBRANCH  34  36
ENDBRANCH  28  30
ENDBRANCH   6  28
TORSDOF 7
ENDMDL
MODEL 10
REMARK VINA RESULT:   -11.040      4.675      8.257
REMARK INTER + INTRA:         -14.085
REMARK INTER:                 -13.128
REMARK INTRA:                  -0.957
REMARK CONF_INDEPENDENT:        2.088
REMARK UNBOUND:                -0.957
REMARK SMILES Cc1cn(-c2cc(NC(=O)c3ccc(C)c(Nc4nccc(-c5cccnc5)n4)c3)cc(C(F)(F)F)c2)cn1
REMARK SMILES IDX 11 1 12 2 13 3 14 4 15 5 16 6 30 7 9 8 10 9 8 10 7 12 6 13
REMARK SMILES IDX 31 14 5 15 32 16 37 17 4 18 3 19 38 20 2 21 39 22 1 23 33 24
REMARK SMILES IDX 34 25 35 26 36 27 17 28 18 30 19 31 29 32 20 33 22 34 21 35
REMARK SMILES IDX 23 36 24 37 28 38 25 39 27 40 26 41
REMARK H PARENT 8 11 17 29
ROOT
ATOM      1  C   UNL     1      34.276  -0.619  50.675  1.00  0.00     0.042 A 
ATOM      2  C   UNL     1      34.381  -1.904  50.122  1.00  0.00     0.014 A 
ATOM      3  C   UNL     1      35.419  -2.239  49.251  1.00  0.00     0.006 A 
ATOM      4  C   UNL     1      36.340  -1.291  48.834  1.00  0.00    -0.027 A 
ATOM      5  C   UNL     1      37.463  -1.668  47.878  1.00  0.00     0.046 C 
ATOM      6  C   UNL     1      36.181   0.013  49.299  1.00  0.00     0.045 A 
ATOM      7  C   UNL     1      35.147   0.323  50.191  1.00  0.00     0.040 A 
ENDROOT
BRANCH   1   8
ATOM      8  C   UNL     1      33.147  -0.145  51.499  1.00  0.00     0.255 C 
ATOM      9  O   UNL     1      33.179   1.023  51.799  1.00  0.00    -0.269 OA
ATOM     10  N   UNL     1      32.102  -0.980  51.607  1.00  0.00    -0.322 N 
ATOM     11  H   UNL     1      32.196  -1.906  51.167  1.00  0.00     0.170 HD
BRANCH  10  12
ATOM     12  C   UNL     1      30.906  -0.709  52.260  1.00  0.00     0.044 A 
ATOM     13  C   UNL     1      30.100   0.391  51.874  1.00  0.00     0.052 A 
ATOM     14  C   UNL     1      30.526  -1.451  53.399  1.00  0.00     0.039 A 
ATOM     15  C   UNL     1      28.891   0.665  52.518  1.00  0.00     0.049 A 
ATOM     16  C   UNL     1      29.282  -1.184  54.039  1.00  0.00     0.060 A 
ATOM     17  C   UNL     1      28.503  -0.108  53.607  1.00  0.00     0.039 A 
BRANCH  15  18
ATOM     18  N   UNL     1      28.065   1.727  52.116  1.00  0.00    -0.306 N 
ATOM     19  C   UNL     1      27.069   2.382  52.837  1.00  0.00     0.116 A 
ATOM     20  C   UNL     1      28.005   2.278  50.899  1.00  0.00     0.204 A 
ATOM     21  C   UNL     1      26.478   3.281  52.020  1.00  0.00     0.056 A 
ATOM     22  N   UNL     1      27.100   3.223  50.821  1.00  0.00    -0.242 NA
ATOM     23  C   UNL     1      25.361   4.241  52.348  1.00  0.00     0.068 C 
ENDBRANCH  15  18
BRANCH  16  24
ATOM     24  C   UNL     1      28.876  -2.025  55.206  1.00  0.00     0.416 C 
ATOM     25  F   UNL     1      28.345  -1.344  56.241  1.00  0.00    -0.166 F 
ATOM     26  F   UNL     1      27.886  -2.847  54.881  1.00  0.00    -0.166 F 
ATOM     27  F   UNL     1      29.922  -2.672  55.760  1.00  0.00    -0.166 F 
ENDBRANCH  16  24
ENDBRANCH  10  12
ENDBRANCH   1   8
BRANCH   6  28
ATOM     28  N   UNL     1      37.188   0.947  49.023  1.00  0.00    -0.324 N 
ATOM     29  H   UNL     1      36.945   1.884  48.671  1.00  0.00     0.170 HD
BRANCH  28  30
ATOM     30  C   UNL     1      38.524   0.597  49.227  1.00  0.00     0.227 A 
ATOM     31  N   UNL     1      39.057  -0.107  50.218  1.00  0.00    -0.221 NA
ATOM     32  N   UNL     1      39.258   1.182  48.246  1.00  0.00    -0.213 NA
ATOM     33  C   UNL     1      40.395  -0.262  50.197  1.00  0.00     0.117 A 
ATOM     34  C   UNL     1      40.586   1.026  48.286  1.00  0.00     0.077 A 
ATOM     35  C   UNL     1      41.175   0.304  49.263  1.00  0.00     0.049 A 
BRANCH  34  36
ATOM     36  C   UNL     1      41.341   1.656  47.171  1.00  0.00     0.019 A 
ATOM     37  C   UNL     1      42.741   1.757  47.196  1.00  0.00     0.013 A 
ATOM     38  C   UNL     1      40.661   2.185  46.057  1.00  0.00     0.121 A 
ATOM     39  C   UNL     1      43.391   2.379  46.137  1.00  0.00     0.021 A 
ATOM     40  N   UNL     1      41.282   2.792  45.037  1.00  0.00    -0.264 NA
ATOM     41  C   UNL     1      42.623   2.853  45.075  1.00  0.00     0.111 A 
ENDBRANCH  34  36
ENDBRANCH  28  30
ENDBRANCH   6  28
TORSDOF 7
ENDMDL
MODEL 11
REMARK VINA RESULT:   -10.889      8.377     15.216
REMARK INTER + INTRA:         -14.279
REMARK INTER:                 -12.977
REMARK INTRA:                  -1.301
REMARK CONF_INDEPENDENT:        2.088
REMARK UNBOUND:                -1.301
REMARK SMILES Cc1cn(-c2cc(NC(=O)c3ccc(C)c(Nc4nccc(-c5cccnc5)n4)c3)cc(C(F)(F)F)c2)cn1
REMARK SMILES IDX 11 1 12 2 13 3 14 4 15 5 16 6 30 7 9 8 10 9 8 10 7 12 6 13
REMARK SMILES IDX 31 14 5 15 32 16 37 17 4 18 3 19 38 20 2 21 39 22 1 23 33 24
REMARK SMILES IDX 34 25 35 26 36 27 17 28 18 30 19 31 29 32 20 33 22 34 21 35
REMARK SMILES IDX 23 36 24 37 28 38 25 39 27 40 26 41
REMARK H PARENT 8 11 17 29
ROOT
ATOM      1  C   UNL     1      36.025  -1.655  49.276  1.00  0.00     0.042 A 
ATOM      2  C   UNL     1      35.248  -2.818  49.165  1.00  0.00     0.014 A 
ATOM      3  C   UNL     1      33.875  -2.801  49.411  1.00  0.00     0.006 A 
ATOM      4  C   UNL     1      33.239  -1.653  49.856  1.00  0.00    -0.027 A 
ATOM      5  C   UNL     1      31.741  -1.650  50.128  1.00  0.00     0.046 C 
ATOM      6  C   UNL     1      34.024  -0.520  50.068  1.00  0.00     0.045 A 
ATOM      7  C   UNL     1      35.396  -0.551  49.791  1.00  0.00     0.040 A 
ENDROOT
BRANCH   1   8
ATOM      8  C   UNL     1      37.496  -1.609  49.159  1.00  0.00     0.255 C 
ATOM      9  O   UNL     1      38.081  -1.196  50.131  1.00  0.00    -0.269 OA
ATOM     10  N   UNL     1      38.027  -2.254  48.109  1.00  0.00    -0.322 N 
ATOM     11  H   UNL     1      37.369  -2.671  47.436  1.00  0.00     0.170 HD
BRANCH  10  12
ATOM     12  C   UNL     1      39.382  -2.411  47.848  1.00  0.00     0.044 A 
ATOM     13  C   UNL     1      39.931  -2.025  46.600  1.00  0.00     0.052 A 
ATOM     14  C   UNL     1      40.220  -3.070  48.774  1.00  0.00     0.039 A 
ATOM     15  C   UNL     1      41.295  -2.169  46.331  1.00  0.00     0.049 A 
ATOM     16  C   UNL     1      41.613  -3.196  48.507  1.00  0.00     0.060 A 
ATOM     17  C   UNL     1      42.119  -2.774  47.275  1.00  0.00     0.039 A 
BRANCH  15  18
ATOM     18  N   UNL     1      41.856  -1.751  45.115  1.00  0.00    -0.306 N 
ATOM     19  C   UNL     1      42.145  -0.458  44.683  1.00  0.00     0.116 A 
ATOM     20  C   UNL     1      42.150  -2.522  44.061  1.00  0.00     0.204 A 
ATOM     21  C   UNL     1      42.595  -0.529  43.411  1.00  0.00     0.056 A 
ATOM     22  N   UNL     1      42.622  -1.832  43.052  1.00  0.00    -0.242 NA
ATOM     23  C   UNL     1      43.052   0.602  42.523  1.00  0.00     0.068 C 
ENDBRANCH  15  18
BRANCH  16  24
ATOM     24  C   UNL     1      42.488  -3.843  49.531  1.00  0.00     0.416 C 
ATOM     25  F   UNL     1      42.059  -5.043  49.970  1.00  0.00    -0.166 F 
ATOM     26  F   UNL     1      43.676  -4.146  49.021  1.00  0.00    -0.166 F 
ATOM     27  F   UNL     1      42.583  -3.112  50.661  1.00  0.00    -0.166 F 
ENDBRANCH  16  24
ENDBRANCH  10  12
ENDBRANCH   1   8
BRANCH   6  28
ATOM     28  N   UNL     1      33.382   0.691  50.359  1.00  0.00    -0.324 N 
ATOM     29  H   UNL     1      33.049   1.298  49.597  1.00  0.00     0.170 HD
BRANCH  28  30
ATOM     30  C   UNL     1      33.198   1.068  51.690  1.00  0.00     0.227 A 
ATOM     31  N   UNL     1      33.893   1.938  52.413  1.00  0.00    -0.221 NA
ATOM     32  N   UNL     1      32.189   0.313  52.196  1.00  0.00    -0.213 NA
ATOM     33  C   UNL     1      33.527   2.083  53.701  1.00  0.00     0.117 A 
ATOM     34  C   UNL     1      31.884   0.470  53.490  1.00  0.00     0.077 A 
ATOM     35  C   UNL     1      32.549   1.355  54.262  1.00  0.00     0.049 A 
BRANCH  34  36
ATOM     36  C   UNL     1      30.750  -0.354  53.986  1.00  0.00     0.019 A 
ATOM     37  C   UNL     1      29.658   0.224  54.653  1.00  0.00     0.013 A 
ATOM     38  C   UNL     1      30.751  -1.751  53.811  1.00  0.00     0.121 A 
ATOM     39  C   UNL     1      28.639  -0.597  55.118  1.00  0.00     0.021 A 
ATOM     40  N   UNL     1      29.775  -2.549  54.263  1.00  0.00    -0.264 NA
ATOM     41  C   UNL     1      28.731  -1.967  54.875  1.00  0.00     0.111 A 
ENDBRANCH  34  36
ENDBRANCH  28  30
ENDBRANCH   6  28
TORSDOF 7
ENDMDL
MODEL 12
REMARK VINA RESULT:   -10.854      4.563      7.504
REMARK INTER + INTRA:         -13.726
REMARK INTER:                 -12.943
REMARK INTRA:                  -0.783
REMARK CONF_INDEPENDENT:        2.088
REMARK UNBOUND:                -0.783
REMARK SMILES Cc1cn(-c2cc(NC(=O)c3ccc(C)c(Nc4nccc(-c5cccnc5)n4)c3)cc(C(F)(F)F)c2)cn1
REMARK SMILES IDX 11 1 12 2 13 3 14 4 15 5 16 6 30 7 9 8 10 9 8 10 7 12 6 13
REMARK SMILES IDX 31 14 5 15 32 16 37 17 4 18 3 19 38 20 2 21 39 22 1 23 33 24
REMARK SMILES IDX 34 25 35 26 36 27 17 28 18 30 19 31 29 32 20 33 22 34 21 35
REMARK SMILES IDX 23 36 24 37 28 38 25 39 27 40 26 41
REMARK H PARENT 8 11 17 29
ROOT
ATOM      1  C   UNL     1      23.057   5.838  52.834  1.00  0.00     0.042 A 
ATOM      2  C   UNL     1      22.727   5.535  51.505  1.00  0.00     0.014 A 
ATOM      3  C   UNL     1      23.315   4.459  50.837  1.00  0.00     0.006 A 
ATOM      4  C   UNL     1      24.309   3.700  51.433  1.00  0.00    -0.027 A 
ATOM      5  C   UNL     1      24.946   2.534  50.690  1.00  0.00     0.046 C 
ATOM      6  C   UNL     1      24.714   4.060  52.717  1.00  0.00     0.045 A 
ATOM      7  C   UNL     1      24.094   5.127  53.380  1.00  0.00     0.040 A 
ENDROOT
BRANCH   1   8
ATOM      8  C   UNL     1      22.582   7.025  53.571  1.00  0.00     0.255 C 
ATOM      9  O   UNL     1      23.420   7.864  53.798  1.00  0.00    -0.269 OA
ATOM     10  N   UNL     1      21.252   7.159  53.684  1.00  0.00    -0.322 N 
ATOM     11  H   UNL     1      20.672   6.395  53.309  1.00  0.00     0.170 HD
BRANCH  10  12
ATOM     12  C   UNL     1      20.586   8.233  54.260  1.00  0.00     0.044 A 
ATOM     13  C   UNL     1      19.566   8.919  53.555  1.00  0.00     0.052 A 
ATOM     14  C   UNL     1      20.992   8.741  55.513  1.00  0.00     0.039 A 
ATOM     15  C   UNL     1      18.884   9.995  54.130  1.00  0.00     0.049 A 
ATOM     16  C   UNL     1      20.280   9.823  56.107  1.00  0.00     0.060 A 
ATOM     17  C   UNL     1      19.261  10.452  55.388  1.00  0.00     0.039 A 
BRANCH  15  18
ATOM     18  N   UNL     1      17.844  10.654  53.456  1.00  0.00    -0.306 N 
ATOM     19  C   UNL     1      16.606  11.065  53.945  1.00  0.00     0.116 A 
ATOM     20  C   UNL     1      17.795  10.948  52.152  1.00  0.00     0.204 A 
ATOM     21  C   UNL     1      15.896  11.580  52.918  1.00  0.00     0.056 A 
ATOM     22  N   UNL     1      16.669  11.528  51.811  1.00  0.00    -0.242 NA
ATOM     23  C   UNL     1      14.507  12.172  52.953  1.00  0.00     0.068 C 
ENDBRANCH  15  18
BRANCH  16  24
ATOM     24  C   UNL     1      20.693  10.301  57.461  1.00  0.00     0.416 C 
ATOM     25  F   UNL     1      21.554  11.338  57.460  1.00  0.00    -0.166 F 
ATOM     26  F   UNL     1      19.659  10.803  58.125  1.00  0.00    -0.166 F 
ATOM     27  F   UNL     1      21.345   9.352  58.163  1.00  0.00    -0.166 F 
ENDBRANCH  16  24
ENDBRANCH  10  12
ENDBRANCH   1   8
BRANCH   6  28
ATOM     28  N   UNL     1      25.596   3.213  53.400  1.00  0.00    -0.324 N 
ATOM     29  H   UNL     1      25.358   2.863  54.339  1.00  0.00     0.170 HD
BRANCH  28  30
ATOM     30  C   UNL     1      26.801   2.846  52.797  1.00  0.00     0.227 A 
ATOM     31  N   UNL     1      27.430   3.418  51.778  1.00  0.00    -0.221 NA
ATOM     32  N   UNL     1      27.228   1.702  53.392  1.00  0.00    -0.213 NA
ATOM     33  C   UNL     1      28.568   2.829  51.362  1.00  0.00     0.117 A 
ATOM     34  C   UNL     1      28.346   1.136  52.922  1.00  0.00     0.077 A 
ATOM     35  C   UNL     1      29.031   1.690  51.899  1.00  0.00     0.049 A 
BRANCH  34  36
ATOM     36  C   UNL     1      28.789  -0.094  53.629  1.00  0.00     0.019 A 
ATOM     37  C   UNL     1      28.111  -0.577  54.760  1.00  0.00     0.013 A 
ATOM     38  C   UNL     1      29.921  -0.805  53.186  1.00  0.00     0.121 A 
ATOM     39  C   UNL     1      28.586  -1.717  55.395  1.00  0.00     0.021 A 
ATOM     40  N   UNL     1      30.388  -1.900  53.798  1.00  0.00    -0.264 NA
ATOM     41  C   UNL     1      29.706  -2.355  54.862  1.00  0.00     0.111 A 
ENDBRANCH  34  36
ENDBRANCH  28  30
ENDBRANCH   6  28
TORSDOF 7
ENDMDL
MODEL 13
REMARK VINA RESULT:   -10.840      3.876     11.771
REMARK INTER + INTRA:         -14.037
REMARK INTER:                 -12.928
REMARK INTRA:                  -1.108
REMARK CONF_INDEPENDENT:        2.088
REMARK UNBOUND:                -1.108
REMARK SMILES Cc1cn(-c2cc(NC(=O)c3ccc(C)c(Nc4nccc(-c5cccnc5)n4)c3)cc(C(F)(F)F)c2)cn1
REMARK SMILES IDX 11 1 12 2 13 3 14 4 15 5 16 6 30 7 9 8 10 9 8 10 7 12 6 13
REMARK SMILES IDX 31 14 5 15 32 16 37 17 4 18 3 19 38 20 2 21 39 22 1 23 33 24
REMARK SMILES IDX 34 25 35 26 36 27 17 28 18 30 19 31 29 32 20 33 22 34 21 35
REMARK SMILES IDX 23 36 24 37 28 38 25 39 27 40 26 41
REMARK H PARENT 8 11 17 29
ROOT
ATOM      1  C   UNL     1      25.725   3.546  51.912  1.00  0.00     0.042 A 
ATOM      2  C   UNL     1      24.853   3.374  50.827  1.00  0.00     0.014 A 
ATOM      3  C   UNL     1      23.520   3.782  50.894  1.00  0.00     0.006 A 
ATOM      4  C   UNL     1      22.984   4.297  52.063  1.00  0.00    -0.027 A 
ATOM      5  C   UNL     1      21.526   4.731  52.123  1.00  0.00     0.046 C 
ATOM      6  C   UNL     1      23.818   4.375  53.177  1.00  0.00     0.045 A 
ATOM      7  C   UNL     1      25.159   3.983  53.082  1.00  0.00     0.040 A 
ENDROOT
BRANCH   1   8
ATOM      8  C   UNL     1      27.107   3.032  51.974  1.00  0.00     0.255 C 
ATOM      9  O   UNL     1      27.670   2.930  50.911  1.00  0.00    -0.269 OA
ATOM     10  N   UNL     1      27.664   2.976  53.193  1.00  0.00    -0.322 N 
ATOM     11  H   UNL     1      27.066   3.230  53.992  1.00  0.00     0.170 HD
BRANCH  10  12
ATOM     12  C   UNL     1      28.972   2.605  53.476  1.00  0.00     0.044 A 
ATOM     13  C   UNL     1      29.640   1.634  52.689  1.00  0.00     0.052 A 
ATOM     14  C   UNL     1      29.625   3.099  54.626  1.00  0.00     0.039 A 
ATOM     15  C   UNL     1      30.960   1.263  52.959  1.00  0.00     0.049 A 
ATOM     16  C   UNL     1      30.977   2.736  54.888  1.00  0.00     0.060 A 
ATOM     17  C   UNL     1      31.608   1.797  54.068  1.00  0.00     0.039 A 
BRANCH  15  18
ATOM     18  N   UNL     1      31.643   0.333  52.161  1.00  0.00    -0.306 N 
ATOM     19  C   UNL     1      31.240  -0.257  50.965  1.00  0.00     0.116 A 
ATOM     20  C   UNL     1      32.811  -0.257  52.440  1.00  0.00     0.204 A 
ATOM     21  C   UNL     1      32.182  -1.154  50.598  1.00  0.00     0.056 A 
ATOM     22  N   UNL     1      33.172  -1.115  51.517  1.00  0.00    -0.242 NA
ATOM     23  C   UNL     1      32.204  -2.028  49.368  1.00  0.00     0.068 C 
ENDBRANCH  15  18
BRANCH  16  24
ATOM     24  C   UNL     1      31.664   3.320  56.080  1.00  0.00     0.416 C 
ATOM     25  F   UNL     1      31.063   4.404  56.608  1.00  0.00    -0.166 F 
ATOM     26  F   UNL     1      31.650   2.472  57.101  1.00  0.00    -0.166 F 
ATOM     27  F   UNL     1      32.906   3.760  55.791  1.00  0.00    -0.166 F 
ENDBRANCH  16  24
ENDBRANCH  10  12
ENDBRANCH   1   8
BRANCH   6  28
ATOM     28  N   UNL     1      23.348   5.039  54.317  1.00  0.00    -0.324 N 
ATOM     29  H   UNL     1      22.391   4.872  54.658  1.00  0.00     0.170 HD
BRANCH  28  30
ATOM     30  C   UNL     1      24.188   5.931  54.987  1.00  0.00     0.227 A 
ATOM     31  N   UNL     1      25.460   6.220  54.743  1.00  0.00    -0.221 NA
ATOM     32  N   UNL     1      23.495   6.438  56.039  1.00  0.00    -0.213 NA
ATOM     33  C   UNL     1      26.053   7.093  55.578  1.00  0.00     0.117 A 
ATOM     34  C   UNL     1      24.137   7.277  56.860  1.00  0.00     0.077 A 
ATOM     35  C   UNL     1      25.426   7.616  56.644  1.00  0.00     0.049 A 
BRANCH  34  36
ATOM     36  C   UNL     1      23.325   7.830  57.976  1.00  0.00     0.019 A 
ATOM     37  C   UNL     1      23.248   9.212  58.214  1.00  0.00     0.013 A 
ATOM     38  C   UNL     1      22.618   6.972  58.840  1.00  0.00     0.121 A 
ATOM     39  C   UNL     1      22.494   9.670  59.287  1.00  0.00     0.021 A 
ATOM     40  N   UNL     1      21.896   7.408  59.880  1.00  0.00    -0.264 NA
ATOM     41  C   UNL     1      21.819   8.735  60.070  1.00  0.00     0.111 A 
ENDBRANCH  34  36
ENDBRANCH  28  30
ENDBRANCH   6  28
TORSDOF 7
ENDMDL
MODEL 14
REMARK VINA RESULT:   -10.797      4.726     13.563
REMARK INTER + INTRA:         -14.227
REMARK INTER:                 -12.885
REMARK INTRA:                  -1.341
REMARK CONF_INDEPENDENT:        2.088
REMARK UNBOUND:                -1.341
REMARK SMILES Cc1cn(-c2cc(NC(=O)c3ccc(C)c(Nc4nccc(-c5cccnc5)n4)c3)cc(C(F)(F)F)c2)cn1
REMARK SMILES IDX 11 1 12 2 13 3 14 4 15 5 16 6 30 7 9 8 10 9 8 10 7 12 6 13
REMARK SMILES IDX 31 14 5 15 32 16 37 17 4 18 3 19 38 20 2 21 39 22 1 23 33 24
REMARK SMILES IDX 34 25 35 26 36 27 17 28 18 30 19 31 29 32 20 33 22 34 21 35
REMARK SMILES IDX 23 36 24 37 28 38 25 39 27 40 26 41
REMARK H PARENT 8 11 17 29
ROOT
ATOM      1  C   UNL     1      21.051   7.306  54.282  1.00  0.00     0.042 A 
ATOM      2  C   UNL     1      20.927   7.461  55.671  1.00  0.00     0.014 A 
ATOM      3  C   UNL     1      20.205   8.521  56.223  1.00  0.00     0.006 A 
ATOM      4  C   UNL     1      19.654   9.508  55.422  1.00  0.00    -0.027 A 
ATOM      5  C   UNL     1      18.877  10.662  56.037  1.00  0.00     0.046 C 
ATOM      6  C   UNL     1      19.863   9.416  54.047  1.00  0.00     0.045 A 
ATOM      7  C   UNL     1      20.569   8.331  53.511  1.00  0.00     0.040 A 
ENDROOT
BRANCH   1   8
ATOM      8  C   UNL     1      21.896   6.293  53.619  1.00  0.00     0.255 C 
ATOM      9  O   UNL     1      21.824   5.178  54.076  1.00  0.00    -0.269 OA
ATOM     10  N   UNL     1      22.445   6.655  52.450  1.00  0.00    -0.322 N 
ATOM     11  H   UNL     1      22.291   7.625  52.141  1.00  0.00     0.170 HD
BRANCH  10  12
ATOM     12  C   UNL     1      23.203   5.840  51.618  1.00  0.00     0.044 A 
ATOM     13  C   UNL     1      24.286   5.084  52.131  1.00  0.00     0.052 A 
ATOM     14  C   UNL     1      22.989   5.842  50.222  1.00  0.00     0.039 A 
ATOM     15  C   UNL     1      25.048   4.254  51.303  1.00  0.00     0.049 A 
ATOM     16  C   UNL     1      23.751   4.979  49.384  1.00  0.00     0.060 A 
ATOM     17  C   UNL     1      24.790   4.226  49.937  1.00  0.00     0.039 A 
BRANCH  15  18
ATOM     18  N   UNL     1      26.095   3.468  51.809  1.00  0.00    -0.306 N 
ATOM     19  C   UNL     1      26.449   3.229  53.135  1.00  0.00     0.116 A 
ATOM     20  C   UNL     1      27.045   2.847  51.100  1.00  0.00     0.204 A 
ATOM     21  C   UNL     1      27.575   2.483  53.144  1.00  0.00     0.056 A 
ATOM     22  N   UNL     1      27.913   2.227  51.861  1.00  0.00    -0.242 NA
ATOM     23  C   UNL     1      28.330   1.955  54.340  1.00  0.00     0.068 C 
ENDBRANCH  15  18
BRANCH  16  24
ATOM     24  C   UNL     1      23.462   4.956  47.919  1.00  0.00     0.416 C 
ATOM     25  F   UNL     1      24.525   5.196  47.125  1.00  0.00    -0.166 F 
ATOM     26  F   UNL     1      23.092   3.743  47.524  1.00  0.00    -0.166 F 
ATOM     27  F   UNL     1      22.578   5.908  47.555  1.00  0.00    -0.166 F 
ENDBRANCH  16  24
ENDBRANCH  10  12
ENDBRANCH   1   8
BRANCH   6  28
ATOM     28  N   UNL     1      19.182  10.307  53.208  1.00  0.00    -0.324 N 
ATOM     29  H   UNL     1      19.703  10.893  52.540  1.00  0.00     0.170 HD
BRANCH  28  30
ATOM     30  C   UNL     1      17.791  10.395  53.284  1.00  0.00     0.227 A 
ATOM     31  N   UNL     1      17.025  11.479  53.301  1.00  0.00    -0.221 NA
ATOM     32  N   UNL     1      17.305   9.135  53.426  1.00  0.00    -0.213 NA
ATOM     33  C   UNL     1      15.699  11.282  53.427  1.00  0.00     0.117 A 
ATOM     34  C   UNL     1      15.984   8.991  53.580  1.00  0.00     0.077 A 
ATOM     35  C   UNL     1      15.161  10.062  53.585  1.00  0.00     0.049 A 
BRANCH  34  36
ATOM     36  C   UNL     1      15.499   7.591  53.696  1.00  0.00     0.019 A 
ATOM     37  C   UNL     1      14.647   7.191  54.737  1.00  0.00     0.013 A 
ATOM     38  C   UNL     1      15.900   6.616  52.761  1.00  0.00     0.121 A 
ATOM     39  C   UNL     1      14.246   5.863  54.809  1.00  0.00     0.021 A 
ATOM     40  N   UNL     1      15.523   5.333  52.830  1.00  0.00    -0.264 NA
ATOM     41  C   UNL     1      14.687   4.984  53.822  1.00  0.00     0.111 A 
ENDBRANCH  34  36
ENDBRANCH  28  30
ENDBRANCH   6  28
TORSDOF 7
ENDMDL
MODEL 15
REMARK VINA RESULT:   -10.709      3.731     12.022
REMARK INTER + INTRA:         -13.874
REMARK INTER:                 -12.797
REMARK INTRA:                  -1.077
REMARK CONF_INDEPENDENT:        2.088
REMARK UNBOUND:                -1.077
REMARK SMILES Cc1cn(-c2cc(NC(=O)c3ccc(C)c(Nc4nccc(-c5cccnc5)n4)c3)cc(C(F)(F)F)c2)cn1
REMARK SMILES IDX 11 1 12 2 13 3 14 4 15 5 16 6 30 7 9 8 10 9 8 10 7 12 6 13
REMARK SMILES IDX 31 14 5 15 32 16 37 17 4 18 3 19 38 20 2 21 39 22 1 23 33 24
REMARK SMILES IDX 34 25 35 26 36 27 17 28 18 30 19 31 29 32 20 33 22 34 21 35
REMARK SMILES IDX 23 36 24 37 28 38 25 39 27 40 26 41
REMARK H PARENT 8 11 17 29
ROOT
ATOM      1  C   UNL     1      26.309   3.183  52.142  1.00  0.00     0.042 A 
ATOM      2  C   UNL     1      25.970   3.283  50.785  1.00  0.00     0.014 A 
ATOM      3  C   UNL     1      25.005   4.188  50.341  1.00  0.00     0.006 A 
ATOM      4  C   UNL     1      24.284   4.965  51.234  1.00  0.00    -0.027 A 
ATOM      5  C   UNL     1      23.229   5.943  50.736  1.00  0.00     0.046 C 
ATOM      6  C   UNL     1      24.544   4.796  52.593  1.00  0.00     0.045 A 
ATOM      7  C   UNL     1      25.534   3.900  53.016  1.00  0.00     0.040 A 
ENDROOT
BRANCH   1   8
ATOM      8  C   UNL     1      27.220   2.171  52.712  1.00  0.00     0.255 C 
ATOM      9  O   UNL     1      26.848   1.658  53.739  1.00  0.00    -0.269 OA
ATOM     10  N   UNL     1      28.216   1.756  51.915  1.00  0.00    -0.322 N 
ATOM     11  H   UNL     1      28.307   2.221  51.000  1.00  0.00     0.170 HD
BRANCH  10  12
ATOM     12  C   UNL     1      29.136   0.758  52.211  1.00  0.00     0.044 A 
ATOM     13  C   UNL     1      30.125   0.378  51.269  1.00  0.00     0.052 A 
ATOM     14  C   UNL     1      29.031   0.017  53.408  1.00  0.00     0.039 A 
ATOM     15  C   UNL     1      31.061  -0.618  51.561  1.00  0.00     0.049 A 
ATOM     16  C   UNL     1      29.999  -0.982  53.713  1.00  0.00     0.060 A 
ATOM     17  C   UNL     1      30.976  -1.305  52.768  1.00  0.00     0.039 A 
BRANCH  15  18
ATOM     18  N   UNL     1      32.069  -0.972  50.652  1.00  0.00    -0.306 N 
ATOM     19  C   UNL     1      33.387  -0.522  50.587  1.00  0.00     0.116 A 
ATOM     20  C   UNL     1      31.941  -1.765  49.582  1.00  0.00     0.204 A 
ATOM     21  C   UNL     1      33.966  -1.069  49.497  1.00  0.00     0.056 A 
ATOM     22  N   UNL     1      33.055  -1.869  48.899  1.00  0.00    -0.242 NA
ATOM     23  C   UNL     1      35.386  -0.898  49.015  1.00  0.00     0.068 C 
ENDBRANCH  15  18
BRANCH  16  24
ATOM     24  C   UNL     1      29.900  -1.710  55.014  1.00  0.00     0.416 C 
ATOM     25  F   UNL     1      29.751  -3.045  54.910  1.00  0.00    -0.166 F 
ATOM     26  F   UNL     1      31.030  -1.612  55.703  1.00  0.00    -0.166 F 
ATOM     27  F   UNL     1      28.823  -1.330  55.733  1.00  0.00    -0.166 F 
ENDBRANCH  16  24
ENDBRANCH  10  12
ENDBRANCH   1   8
BRANCH   6  28
ATOM     28  N   UNL     1      23.948   5.681  53.501  1.00  0.00    -0.324 N 
ATOM     29  H   UNL     1      22.959   5.946  53.395  1.00  0.00     0.170 HD
BRANCH  28  30
ATOM     30  C   UNL     1      24.708   6.203  54.550  1.00  0.00     0.227 A 
ATOM     31  N   UNL     1      26.025   6.337  54.638  1.00  0.00    -0.221 NA
ATOM     32  N   UNL     1      23.857   6.503  55.565  1.00  0.00    -0.213 NA
ATOM     33  C   UNL     1      26.507   6.835  55.792  1.00  0.00     0.117 A 
ATOM     34  C   UNL     1      24.386   6.964  56.704  1.00  0.00     0.077 A 
ATOM     35  C   UNL     1      25.718   7.136  56.836  1.00  0.00     0.049 A 
BRANCH  34  36
ATOM     36  C   UNL     1      23.410   7.310  57.771  1.00  0.00     0.019 A 
ATOM     37  C   UNL     1      23.829   7.785  59.024  1.00  0.00     0.013 A 
ATOM     38  C   UNL     1      22.027   7.155  57.554  1.00  0.00     0.121 A 
ATOM     39  C   UNL     1      22.874   8.069  59.992  1.00  0.00     0.021 A 
ATOM     40  N   UNL     1      21.102   7.419  58.485  1.00  0.00    -0.264 NA
ATOM     41  C   UNL     1      21.529   7.895  59.666  1.00  0.00     0.111 A 
ENDBRANCH  34  36
ENDBRANCH  28  30
ENDBRANCH   6  28
TORSDOF 7
ENDMDL
MODEL 16
REMARK VINA RESULT:   -10.660      3.645     12.222
REMARK INTER + INTRA:         -14.065
REMARK INTER:                 -12.749
REMARK INTRA:                  -1.316
REMARK CONF_INDEPENDENT:        2.088
REMARK UNBOUND:                -1.316
REMARK SMILES Cc1cn(-c2cc(NC(=O)c3ccc(C)c(Nc4nccc(-c5cccnc5)n4)c3)cc(C(F)(F)F)c2)cn1
REMARK SMILES IDX 11 1 12 2 13 3 14 4 15 5 16 6 30 7 9 8 10 9 8 10 7 12 6 13
REMARK SMILES IDX 31 14 5 15 32 16 37 17 4 18 3 19 38 20 2 21 39 22 1 23 33 24
REMARK SMILES IDX 34 25 35 26 36 27 17 28 18 30 19 31 29 32 20 33 22 34 21 35
REMARK SMILES IDX 23 36 24 37 28 38 25 39 27 40 26 41
REMARK H PARENT 8 11 17 29
ROOT
ATOM      1  C   UNL     1      25.723   3.661  51.949  1.00  0.00     0.042 A 
ATOM      2  C   UNL     1      24.984   3.834  50.769  1.00  0.00     0.014 A 
ATOM      3  C   UNL     1      23.646   4.228  50.801  1.00  0.00     0.006 A 
ATOM      4  C   UNL     1      22.971   4.382  52.001  1.00  0.00    -0.027 A 
ATOM      5  C   UNL     1      21.508   4.805  52.020  1.00  0.00     0.046 C 
ATOM      6  C   UNL     1      23.670   4.111  53.176  1.00  0.00     0.045 A 
ATOM      7  C   UNL     1      25.020   3.742  53.123  1.00  0.00     0.040 A 
ENDROOT
BRANCH   1   8
ATOM      8  C   UNL     1      27.098   3.127  52.013  1.00  0.00     0.255 C 
ATOM      9  O   UNL     1      27.662   3.021  50.952  1.00  0.00    -0.269 OA
ATOM     10  N   UNL     1      27.650   3.060  53.234  1.00  0.00    -0.322 N 
ATOM     11  H   UNL     1      27.054   3.320  54.032  1.00  0.00     0.170 HD
BRANCH  10  12
ATOM     12  C   UNL     1      28.953   2.670  53.520  1.00  0.00     0.044 A 
ATOM     13  C   UNL     1      29.610   1.694  52.730  1.00  0.00     0.052 A 
ATOM     14  C   UNL     1      29.608   3.149  54.675  1.00  0.00     0.039 A 
ATOM     15  C   UNL     1      30.923   1.303  53.004  1.00  0.00     0.049 A 
ATOM     16  C   UNL     1      30.954   2.766  54.939  1.00  0.00     0.060 A 
ATOM     17  C   UNL     1      31.575   1.823  54.117  1.00  0.00     0.039 A 
BRANCH  15  18
ATOM     18  N   UNL     1      31.597   0.368  52.203  1.00  0.00    -0.306 N 
ATOM     19  C   UNL     1      31.173  -0.242  51.024  1.00  0.00     0.116 A 
ATOM     20  C   UNL     1      32.775  -0.210  52.465  1.00  0.00     0.204 A 
ATOM     21  C   UNL     1      32.114  -1.136  50.649  1.00  0.00     0.056 A 
ATOM     22  N   UNL     1      33.123  -1.078  51.546  1.00  0.00    -0.242 NA
ATOM     23  C   UNL     1      32.116  -2.026  49.430  1.00  0.00     0.068 C 
ENDBRANCH  15  18
BRANCH  16  24
ATOM     24  C   UNL     1      31.645   3.335  56.136  1.00  0.00     0.416 C 
ATOM     25  F   UNL     1      31.036   4.402  56.691  1.00  0.00    -0.166 F 
ATOM     26  F   UNL     1      31.650   2.468  57.141  1.00  0.00    -0.166 F 
ATOM     27  F   UNL     1      32.879   3.796  55.845  1.00  0.00    -0.166 F 
ENDBRANCH  16  24
ENDBRANCH  10  12
ENDBRANCH   1   8
BRANCH   6  28
ATOM     28  N   UNL     1      23.062   4.416  54.400  1.00  0.00    -0.324 N 
ATOM     29  H   UNL     1      22.510   3.703  54.897  1.00  0.00     0.170 HD
BRANCH  28  30
ATOM     30  C   UNL     1      23.209   5.695  54.940  1.00  0.00     0.227 A 
ATOM     31  N   UNL     1      24.255   6.218  55.567  1.00  0.00    -0.221 NA
ATOM     32  N   UNL     1      22.026   6.345  54.791  1.00  0.00    -0.213 NA
ATOM     33  C   UNL     1      24.116   7.474  56.033  1.00  0.00     0.117 A 
ATOM     34  C   UNL     1      21.925   7.578  55.299  1.00  0.00     0.077 A 
ATOM     35  C   UNL     1      22.968   8.161  55.930  1.00  0.00     0.049 A 
BRANCH  34  36
ATOM     36  C   UNL     1      20.623   8.259  55.078  1.00  0.00     0.019 A 
ATOM     37  C   UNL     1      20.266   8.775  53.822  1.00  0.00     0.013 A 
ATOM     38  C   UNL     1      19.710   8.419  56.140  1.00  0.00     0.121 A 
ATOM     39  C   UNL     1      19.046   9.425  53.681  1.00  0.00     0.021 A 
ATOM     40  N   UNL     1      18.536   9.051  56.012  1.00  0.00    -0.264 NA
ATOM     41  C   UNL     1      18.210   9.512  54.793  1.00  0.00     0.111 A 
ENDBRANCH  34  36
ENDBRANCH  28  30
ENDBRANCH   6  28
TORSDOF 7
ENDMDL
MODEL 17
REMARK VINA RESULT:   -10.640      3.459      5.559
REMARK INTER + INTRA:         -13.799
REMARK INTER:                 -12.728
REMARK INTRA:                  -1.072
REMARK CONF_INDEPENDENT:        2.088
REMARK UNBOUND:                -1.072
REMARK SMILES Cc1cn(-c2cc(NC(=O)c3ccc(C)c(Nc4nccc(-c5cccnc5)n4)c3)cc(C(F)(F)F)c2)cn1
REMARK SMILES IDX 11 1 12 2 13 3 14 4 15 5 16 6 30 7 9 8 10 9 8 10 7 12 6 13
REMARK SMILES IDX 31 14 5 15 32 16 37 17 4 18 3 19 38 20 2 21 39 22 1 23 33 24
REMARK SMILES IDX 34 25 35 26 36 27 17 28 18 30 19 31 29 32 20 33 22 34 21 35
REMARK SMILES IDX 23 36 24 37 28 38 25 39 27 40 26 41
REMARK H PARENT 8 11 17 29
ROOT
ATOM      1  C   UNL     1      27.702   1.906  52.497  1.00  0.00     0.042 A 
ATOM      2  C   UNL     1      27.968   0.775  51.710  1.00  0.00     0.014 A 
ATOM      3  C   UNL     1      28.954  -0.144  52.069  1.00  0.00     0.006 A 
ATOM      4  C   UNL     1      29.767   0.068  53.171  1.00  0.00    -0.027 A 
ATOM      5  C   UNL     1      30.845  -0.940  53.545  1.00  0.00     0.046 C 
ATOM      6  C   UNL     1      29.578   1.242  53.897  1.00  0.00     0.045 A 
ATOM      7  C   UNL     1      28.565   2.140  53.536  1.00  0.00     0.040 A 
ENDROOT
BRANCH   1   8
ATOM      8  C   UNL     1      26.770   2.990  52.129  1.00  0.00     0.255 C 
ATOM      9  O   UNL     1      26.665   3.203  50.945  1.00  0.00    -0.269 OA
ATOM     10  N   UNL     1      25.968   3.439  53.106  1.00  0.00    -0.322 N 
ATOM     11  H   UNL     1      26.110   3.042  54.046  1.00  0.00     0.170 HD
BRANCH  10  12
ATOM     12  C   UNL     1      24.965   4.389  52.967  1.00  0.00     0.044 A 
ATOM     13  C   UNL     1      24.211   4.820  54.086  1.00  0.00     0.052 A 
ATOM     14  C   UNL     1      24.592   4.857  51.688  1.00  0.00     0.039 A 
ATOM     15  C   UNL     1      23.206   5.783  53.958  1.00  0.00     0.049 A 
ATOM     16  C   UNL     1      23.583   5.854  51.561  1.00  0.00     0.060 A 
ATOM     17  C   UNL     1      22.885   6.273  52.696  1.00  0.00     0.039 A 
BRANCH  15  18
ATOM     18  N   UNL     1      22.482   6.247  55.066  1.00  0.00    -0.306 N 
ATOM     19  C   UNL     1      22.960   6.729  56.284  1.00  0.00     0.116 A 
ATOM     20  C   UNL     1      21.153   6.236  55.218  1.00  0.00     0.204 A 
ATOM     21  C   UNL     1      21.900   6.980  57.083  1.00  0.00     0.056 A 
ATOM     22  N   UNL     1      20.777   6.696  56.386  1.00  0.00    -0.242 NA
ATOM     23  C   UNL     1      21.906   7.532  58.488  1.00  0.00     0.068 C 
ENDBRANCH  15  18
BRANCH  16  24
ATOM     24  C   UNL     1      23.250   6.375  50.201  1.00  0.00     0.416 C 
ATOM     25  F   UNL     1      22.245   5.732  49.574  1.00  0.00    -0.166 F 
ATOM     26  F   UNL     1      22.782   7.616  50.267  1.00  0.00    -0.166 F 
ATOM     27  F   UNL     1      24.282   6.258  49.340  1.00  0.00    -0.166 F 
ENDBRANCH  16  24
ENDBRANCH  10  12
ENDBRANCH   1   8
BRANCH   6  28
ATOM     28  N   UNL     1      30.273   1.399  55.103  1.00  0.00    -0.324 N 
ATOM     29  H   UNL     1      30.035   0.818  55.920  1.00  0.00     0.170 HD
BRANCH  28  30
ATOM     30  C   UNL     1      31.292   2.350  55.190  1.00  0.00     0.227 A 
ATOM     31  N   UNL     1      32.187   2.697  54.273  1.00  0.00    -0.221 NA
ATOM     32  N   UNL     1      31.284   2.849  56.453  1.00  0.00    -0.213 NA
ATOM     33  C   UNL     1      33.097   3.621  54.635  1.00  0.00     0.117 A 
ATOM     34  C   UNL     1      32.227   3.741  56.775  1.00  0.00     0.077 A 
ATOM     35  C   UNL     1      33.149   4.139  55.872  1.00  0.00     0.049 A 
BRANCH  34  36
ATOM     36  C   UNL     1      32.154   4.282  58.157  1.00  0.00     0.019 A 
ATOM     37  C   UNL     1      32.519   3.508  59.271  1.00  0.00     0.013 A 
ATOM     38  C   UNL     1      31.697   5.595  58.388  1.00  0.00     0.121 A 
ATOM     39  C   UNL     1      32.406   4.058  60.541  1.00  0.00     0.021 A 
ATOM     40  N   UNL     1      31.579   6.127  59.611  1.00  0.00    -0.264 NA
ATOM     41  C   UNL     1      31.959   5.374  60.656  1.00  0.00     0.111 A 
ENDBRANCH  34  36
ENDBRANCH  28  30
ENDBRANCH   6  28
TORSDOF 7
ENDMDL
MODEL 18
REMARK VINA RESULT:   -10.606      6.748     14.686
REMARK INTER + INTRA:         -13.735
REMARK INTER:                 -12.694
REMARK INTRA:                  -1.041
REMARK CONF_INDEPENDENT:        2.088
REMARK UNBOUND:                -1.041
REMARK SMILES Cc1cn(-c2cc(NC(=O)c3ccc(C)c(Nc4nccc(-c5cccnc5)n4)c3)cc(C(F)(F)F)c2)cn1
REMARK SMILES IDX 11 1 12 2 13 3 14 4 15 5 16 6 30 7 9 8 10 9 8 10 7 12 6 13
REMARK SMILES IDX 31 14 5 15 32 16 37 17 4 18 3 19 38 20 2 21 39 22 1 23 33 24
REMARK SMILES IDX 34 25 35 26 36 27 17 28 18 30 19 31 29 32 20 33 22 34 21 35
REMARK SMILES IDX 23 36 24 37 28 38 25 39 27 40 26 41
REMARK H PARENT 8 11 17 29
ROOT
ATOM      1  C   UNL     1      35.627  -1.304  49.648  1.00  0.00     0.042 A 
ATOM      2  C   UNL     1      34.866  -2.290  49.003  1.00  0.00     0.014 A 
ATOM      3  C   UNL     1      33.473  -2.301  49.082  1.00  0.00     0.006 A 
ATOM      4  C   UNL     1      32.791  -1.386  49.868  1.00  0.00    -0.027 A 
ATOM      5  C   UNL     1      31.272  -1.414  49.951  1.00  0.00     0.046 C 
ATOM      6  C   UNL     1      33.548  -0.468  50.594  1.00  0.00     0.045 A 
ATOM      7  C   UNL     1      34.944  -0.458  50.482  1.00  0.00     0.040 A 
ENDROOT
BRANCH   1   8
ATOM      8  C   UNL     1      37.102  -1.291  49.722  1.00  0.00     0.255 C 
ATOM      9  O   UNL     1      37.566  -0.792  50.718  1.00  0.00    -0.269 OA
ATOM     10  N   UNL     1      37.746  -2.045  48.819  1.00  0.00    -0.322 N 
ATOM     11  H   UNL     1      37.171  -2.518  48.108  1.00  0.00     0.170 HD
BRANCH  10  12
ATOM     12  C   UNL     1      39.119  -2.247  48.756  1.00  0.00     0.044 A 
ATOM     13  C   UNL     1      39.903  -2.294  49.935  1.00  0.00     0.052 A 
ATOM     14  C   UNL     1      39.782  -2.288  47.510  1.00  0.00     0.039 A 
ATOM     15  C   UNL     1      41.283  -2.507  49.882  1.00  0.00     0.049 A 
ATOM     16  C   UNL     1      41.185  -2.526  47.458  1.00  0.00     0.060 A 
ATOM     17  C   UNL     1      41.915  -2.597  48.646  1.00  0.00     0.039 A 
BRANCH  15  18
ATOM     18  N   UNL     1      42.061  -2.597  51.046  1.00  0.00    -0.306 N 
ATOM     19  C   UNL     1      42.058  -3.588  52.027  1.00  0.00     0.116 A 
ATOM     20  C   UNL     1      42.922  -1.682  51.508  1.00  0.00     0.204 A 
ATOM     21  C   UNL     1      42.910  -3.215  53.006  1.00  0.00     0.056 A 
ATOM     22  N   UNL     1      43.465  -2.036  52.647  1.00  0.00    -0.242 NA
ATOM     23  C   UNL     1      43.261  -3.966  54.268  1.00  0.00     0.068 C 
ENDBRANCH  15  18
BRANCH  16  24
ATOM     24  C   UNL     1      41.851  -2.625  46.124  1.00  0.00     0.416 C 
ATOM     25  F   UNL     1      41.949  -3.874  45.627  1.00  0.00    -0.166 F 
ATOM     26  F   UNL     1      41.137  -2.012  45.187  1.00  0.00    -0.166 F 
ATOM     27  F   UNL     1      43.131  -2.199  46.157  1.00  0.00    -0.166 F 
ENDBRANCH  16  24
ENDBRANCH  10  12
ENDBRANCH   1   8
BRANCH   6  28
ATOM     28  N   UNL     1      32.880   0.565  51.265  1.00  0.00    -0.324 N 
ATOM     29  H   UNL     1      33.067   1.548  51.023  1.00  0.00     0.170 HD
BRANCH  28  30
ATOM     30  C   UNL     1      31.957   0.250  52.265  1.00  0.00     0.227 A 
ATOM     31  N   UNL     1      32.059  -0.645  53.240  1.00  0.00    -0.221 NA
ATOM     32  N   UNL     1      30.837   0.984  52.038  1.00  0.00    -0.213 NA
ATOM     33  C   UNL     1      30.993  -0.780  54.052  1.00  0.00     0.117 A 
ATOM     34  C   UNL     1      29.793   0.791  52.852  1.00  0.00     0.077 A 
ATOM     35  C   UNL     1      29.854  -0.095  53.869  1.00  0.00     0.049 A 
BRANCH  34  36
ATOM     36  C   UNL     1      28.604   1.643  52.583  1.00  0.00     0.019 A 
ATOM     37  C   UNL     1      27.497   1.653  53.447  1.00  0.00     0.013 A 
ATOM     38  C   UNL     1      28.553   2.458  51.436  1.00  0.00     0.121 A 
ATOM     39  C   UNL     1      26.404   2.450  53.132  1.00  0.00     0.021 A 
ATOM     40  N   UNL     1      27.499   3.222  51.123  1.00  0.00    -0.264 NA
ATOM     41  C   UNL     1      26.464   3.233  51.979  1.00  0.00     0.111 A 
ENDBRANCH  34  36
ENDBRANCH  28  30
ENDBRANCH   6  28
TORSDOF 7
ENDMDL
MODEL 19
REMARK VINA RESULT:   -10.554      5.761     10.897
REMARK INTER + INTRA:         -13.771
REMARK INTER:                 -12.642
REMARK INTRA:                  -1.128
REMARK CONF_INDEPENDENT:        2.088
REMARK UNBOUND:                -1.128
REMARK SMILES Cc1cn(-c2cc(NC(=O)c3ccc(C)c(Nc4nccc(-c5cccnc5)n4)c3)cc(C(F)(F)F)c2)cn1
REMARK SMILES IDX 11 1 12 2 13 3 14 4 15 5 16 6 30 7 9 8 10 9 8 10 7 12 6 13
REMARK SMILES IDX 31 14 5 15 32 16 37 17 4 18 3 19 38 20 2 21 39 22 1 23 33 24
REMARK SMILES IDX 34 25 35 26 36 27 17 28 18 30 19 31 29 32 20 33 22 34 21 35
REMARK SMILES IDX 23 36 24 37 28 38 25 39 27 40 26 41
REMARK H PARENT 8 11 17 29
ROOT
ATOM      1  C   UNL     1      22.285   6.486  55.205  1.00  0.00     0.042 A 
ATOM      2  C   UNL     1      21.548   7.627  54.853  1.00  0.00     0.014 A 
ATOM      3  C   UNL     1      21.094   8.525  55.820  1.00  0.00     0.006 A 
ATOM      4  C   UNL     1      21.282   8.283  57.171  1.00  0.00    -0.027 A 
ATOM      5  C   UNL     1      20.775   9.268  58.215  1.00  0.00     0.046 C 
ATOM      6  C   UNL     1      21.924   7.099  57.532  1.00  0.00     0.045 A 
ATOM      7  C   UNL     1      22.394   6.222  56.545  1.00  0.00     0.040 A 
ENDROOT
BRANCH   1   8
ATOM      8  C   UNL     1      22.693   5.423  54.266  1.00  0.00     0.255 C 
ATOM      9  O   UNL     1      21.790   4.784  53.783  1.00  0.00    -0.269 OA
ATOM     10  N   UNL     1      23.972   5.447  53.863  1.00  0.00    -0.322 N 
ATOM     11  H   UNL     1      24.582   6.159  54.288  1.00  0.00     0.170 HD
BRANCH  10  12
ATOM     12  C   UNL     1      24.549   4.599  52.925  1.00  0.00     0.044 A 
ATOM     13  C   UNL     1      23.812   4.150  51.802  1.00  0.00     0.052 A 
ATOM     14  C   UNL     1      25.841   4.071  53.135  1.00  0.00     0.039 A 
ATOM     15  C   UNL     1      24.387   3.305  50.848  1.00  0.00     0.049 A 
ATOM     16  C   UNL     1      26.433   3.228  52.151  1.00  0.00     0.060 A 
ATOM     17  C   UNL     1      25.681   2.833  51.041  1.00  0.00     0.039 A 
BRANCH  15  18
ATOM     18  N   UNL     1      23.680   2.888  49.710  1.00  0.00    -0.306 N 
ATOM     19  C   UNL     1      22.877   1.762  49.542  1.00  0.00     0.116 A 
ATOM     20  C   UNL     1      23.708   3.454  48.497  1.00  0.00     0.204 A 
ATOM     21  C   UNL     1      22.471   1.721  48.254  1.00  0.00     0.056 A 
ATOM     22  N   UNL     1      22.975   2.806  47.625  1.00  0.00    -0.242 NA
ATOM     23  C   UNL     1      21.571   0.703  47.595  1.00  0.00     0.068 C 
ENDBRANCH  15  18
BRANCH  16  24
ATOM     24  C   UNL     1      27.825   2.731  52.369  1.00  0.00     0.416 C 
ATOM     25  F   UNL     1      27.987   1.403  52.210  1.00  0.00    -0.166 F 
ATOM     26  F   UNL     1      28.655   3.221  51.455  1.00  0.00    -0.166 F 
ATOM     27  F   UNL     1      28.256   2.951  53.628  1.00  0.00    -0.166 F 
ENDBRANCH  16  24
ENDBRANCH  10  12
ENDBRANCH   1   8
BRANCH   6  28
ATOM     28  N   UNL     1      22.269   6.910  58.876  1.00  0.00    -0.324 N 
ATOM     29  H   UNL     1      21.748   6.238  59.457  1.00  0.00     0.170 HD
BRANCH  28  30
ATOM     30  C   UNL     1      23.326   7.641  59.423  1.00  0.00     0.227 A 
ATOM     31  N   UNL     1      23.583   8.939  59.318  1.00  0.00    -0.221 NA
ATOM     32  N   UNL     1      24.149   6.765  60.054  1.00  0.00    -0.213 NA
ATOM     33  C   UNL     1      24.706   9.384  59.913  1.00  0.00     0.117 A 
ATOM     34  C   UNL     1      25.269   7.249  60.603  1.00  0.00     0.077 A 
ATOM     35  C   UNL     1      25.566   8.565  60.539  1.00  0.00     0.049 A 
BRANCH  34  36
ATOM     36  C   UNL     1      26.118   6.257  61.312  1.00  0.00     0.019 A 
ATOM     37  C   UNL     1      26.470   6.421  62.662  1.00  0.00     0.013 A 
ATOM     38  C   UNL     1      26.608   5.122  60.637  1.00  0.00     0.121 A 
ATOM     39  C   UNL     1      27.287   5.474  63.266  1.00  0.00     0.021 A 
ATOM     40  N   UNL     1      27.403   4.210  61.212  1.00  0.00    -0.264 NA
ATOM     41  C   UNL     1      27.703   4.378  62.510  1.00  0.00     0.111 A 
ENDBRANCH  34  36
ENDBRANCH  28  30
ENDBRANCH   6  28
TORSDOF 7
ENDMDL
MODEL 20
REMARK VINA RESULT:   -10.442      5.227      8.117
REMARK INTER + INTRA:         -13.728
REMARK INTER:                 -12.530
REMARK INTRA:                  -1.198
REMARK CONF_INDEPENDENT:        2.088
REMARK UNBOUND:                -1.198
REMARK SMILES Cc1cn(-c2cc(NC(=O)c3ccc(C)c(Nc4nccc(-c5cccnc5)n4)c3)cc(C(F)(F)F)c2)cn1
REMARK SMILES IDX 11 1 12 2 13 3 14 4 15 5 16 6 30 7 9 8 10 9 8 10 7 12 6 13
REMARK SMILES IDX 31 14 5 15 32 16 37 17 4 18 3 19 38 20 2 21 39 22 1 23 33 24
REMARK SMILES IDX 34 25 35 26 36 27 17 28 18 30 19 31 29 32 20 33 22 34 21 35
REMARK SMILES IDX 23 36 24 37 28 38 25 39 27 40 26 41
REMARK H PARENT 8 11 17 29
ROOT
ATOM      1  C   UNL     1      24.505   5.881  54.246  1.00  0.00     0.042 A 
ATOM      2  C   UNL     1      23.901   6.619  53.216  1.00  0.00     0.014 A 
ATOM      3  C   UNL     1      23.775   6.099  51.927  1.00  0.00     0.006 A 
ATOM      4  C   UNL     1      24.316   4.868  51.593  1.00  0.00    -0.027 A 
ATOM      5  C   UNL     1      24.177   4.317  50.180  1.00  0.00     0.046 C 
ATOM      6  C   UNL     1      25.008   4.175  52.585  1.00  0.00     0.045 A 
ATOM      7  C   UNL     1      25.101   4.703  53.879  1.00  0.00     0.040 A 
ENDROOT
BRANCH   1   8
ATOM      8  C   UNL     1      24.793   6.399  55.597  1.00  0.00     0.255 C 
ATOM      9  O   UNL     1      25.887   6.886  55.744  1.00  0.00    -0.269 OA
ATOM     10  N   UNL     1      23.744   6.502  56.427  1.00  0.00    -0.322 N 
ATOM     11  H   UNL     1      22.839   6.152  56.083  1.00  0.00     0.170 HD
BRANCH  10  12
ATOM     12  C   UNL     1      23.767   7.037  57.709  1.00  0.00     0.044 A 
ATOM     13  C   UNL     1      24.719   6.599  58.663  1.00  0.00     0.052 A 
ATOM     14  C   UNL     1      22.767   7.942  58.128  1.00  0.00     0.039 A 
ATOM     15  C   UNL     1      24.757   7.139  59.952  1.00  0.00     0.049 A 
ATOM     16  C   UNL     1      22.820   8.507  59.434  1.00  0.00     0.060 A 
ATOM     17  C   UNL     1      23.795   8.069  60.333  1.00  0.00     0.039 A 
BRANCH  15  18
ATOM     18  N   UNL     1      25.722   6.743  60.890  1.00  0.00    -0.306 N 
ATOM     19  C   UNL     1      25.973   5.472  61.404  1.00  0.00     0.116 A 
ATOM     20  C   UNL     1      26.557   7.540  61.566  1.00  0.00     0.204 A 
ATOM     21  C   UNL     1      26.937   5.580  62.344  1.00  0.00     0.056 A 
ATOM     22  N   UNL     1      27.312   6.877  62.407  1.00  0.00    -0.242 NA
ATOM     23  C   UNL     1      27.560   4.478  63.167  1.00  0.00     0.068 C 
ENDBRANCH  15  18
BRANCH  16  24
ATOM     24  C   UNL     1      21.783   9.507  59.830  1.00  0.00     0.416 C 
ATOM     25  F   UNL     1      20.732   9.600  58.992  1.00  0.00    -0.166 F 
ATOM     26  F   UNL     1      21.197   9.160  60.970  1.00  0.00    -0.166 F 
ATOM     27  F   UNL     1      22.270  10.765  59.862  1.00  0.00    -0.166 F 
ENDBRANCH  16  24
ENDBRANCH  10  12
ENDBRANCH   1   8
BRANCH   6  28
ATOM     28  N   UNL     1      25.420   2.863  52.318  1.00  0.00    -0.324 N 
ATOM     29  H   UNL     1      24.731   2.098  52.293  1.00  0.00     0.170 HD
BRANCH  28  30
ATOM     30  C   UNL     1      26.771   2.602  52.086  1.00  0.00     0.227 A 
ATOM     31  N   UNL     1      27.610   3.222  51.265  1.00  0.00    -0.221 NA
ATOM     32  N   UNL     1      27.109   1.504  52.810  1.00  0.00    -0.213 NA
ATOM     33  C   UNL     1      28.864   2.734  51.200  1.00  0.00     0.117 A 
ATOM     34  C   UNL     1      28.357   1.037  52.687  1.00  0.00     0.077 A 
ATOM     35  C   UNL     1      29.253   1.643  51.879  1.00  0.00     0.049 A 
BRANCH  34  36
ATOM     36  C   UNL     1      28.686  -0.145  53.526  1.00  0.00     0.019 A 
ATOM     37  C   UNL     1      27.902  -0.501  54.635  1.00  0.00     0.013 A 
ATOM     38  C   UNL     1      29.814  -0.937  53.235  1.00  0.00     0.121 A 
ATOM     39  C   UNL     1      28.272  -1.601  55.398  1.00  0.00     0.021 A 
ATOM     40  N   UNL     1      30.180  -1.994  53.971  1.00  0.00    -0.264 NA
ATOM     41  C   UNL     1      29.398  -2.327  55.011  1.00  0.00     0.111 A 
ENDBRANCH  34  36
ENDBRANCH  28  30
ENDBRANCH   6  28
TORSDOF 7
ENDMDL
