MODEL 1
REMARK VINA RESULT:   -14.410      0.000      0.000
REMARK INTER + INTRA:         -17.669
REMARK INTER:                 -16.498
REMARK INTRA:                  -1.171
REMARK CONF_INDEPENDENT:        2.088
REMARK UNBOUND:                -1.171
REMARK SMILES Cc1cn(-c2cc(NC(=O)c3ccc(C)c(Nc4nccc(-c5cccnc5)n4)c3)cc(C(F)(F)F)c2)cn1
REMARK SMILES IDX 11 1 12 2 13 3 14 4 15 5 16 6 30 7 9 8 10 9 8 10 7 12 6 13
REMARK SMILES IDX 31 14 5 15 32 16 37 17 4 18 3 19 38 20 2 21 39 22 1 23 33 24
REMARK SMILES IDX 34 25 35 26 36 27 17 28 18 30 19 31 29 32 20 33 22 34 21 35
REMARK SMILES IDX 23 36 24 37 28 38 25 39 27 40 26 41
REMARK H PARENT 8 11 17 29
ROOT
ATOM      1  C   UNL     1      27.966   1.755  53.063  1.00  0.00     0.042 A 
ATOM      2  C   UNL     1      27.671   1.211  54.323  1.00  0.00     0.014 A 
ATOM      3  C   UNL     1      28.384   0.124  54.829  1.00  0.00     0.006 A 
ATOM      4  C   UNL     1      29.355  -0.514  54.074  1.00  0.00    -0.027 A 
ATOM      5  C   UNL     1      30.119  -1.704  54.636  1.00  0.00     0.046 C 
ATOM      6  C   UNL     1      29.580  -0.043  52.781  1.00  0.00     0.045 A 
ATOM      7  C   UNL     1      28.872   1.065  52.301  1.00  0.00     0.040 A 
ENDROOT
BRANCH   1   8
ATOM      8  C   UNL     1      27.184   2.817  52.400  1.00  0.00     0.255 C 
ATOM      9  O   UNL     1      27.502   3.060  51.261  1.00  0.00    -0.269 OA
ATOM     10  N   UNL     1      26.066   3.210  53.029  1.00  0.00    -0.322 N 
ATOM     11  H   UNL     1      25.877   2.792  53.951  1.00  0.00     0.170 HD
BRANCH  10  12
ATOM     12  C   UNL     1      25.141   4.130  52.551  1.00  0.00     0.044 A 
ATOM     13  C   UNL     1      24.219   4.755  53.426  1.00  0.00     0.052 A 
ATOM     14  C   UNL     1      25.019   4.371  51.165  1.00  0.00     0.039 A 
ATOM     15  C   UNL     1      23.291   5.689  52.956  1.00  0.00     0.049 A 
ATOM     16  C   UNL     1      24.088   5.339  50.691  1.00  0.00     0.060 A 
ATOM     17  C   UNL     1      23.217   5.955  51.593  1.00  0.00     0.039 A 
BRANCH  15  18
ATOM     18  N   UNL     1      22.401   6.344  53.820  1.00  0.00    -0.306 N 
ATOM     19  C   UNL     1      22.088   6.047  55.145  1.00  0.00     0.116 A 
ATOM     20  C   UNL     1      21.586   7.359  53.511  1.00  0.00     0.204 A 
ATOM     21  C   UNL     1      21.117   6.894  55.550  1.00  0.00     0.056 A 
ATOM     22  N   UNL     1      20.840   7.729  54.524  1.00  0.00    -0.242 NA
ATOM     23  C   UNL     1      20.462   6.976  56.908  1.00  0.00     0.068 C 
ENDBRANCH  15  18
BRANCH  16  24
ATOM     24  C   UNL     1      24.022   5.619  49.225  1.00  0.00     0.416 C 
ATOM     25  F   UNL     1      24.859   6.582  48.790  1.00  0.00    -0.166 F 
ATOM     26  F   UNL     1      24.424   4.567  48.520  1.00  0.00    -0.166 F 
ATOM     27  F   UNL     1      22.807   6.062  48.841  1.00  0.00    -0.166 F 
ENDBRANCH  16  24
ENDBRANCH  10  12
ENDBRANCH   1   8
BRANCH   6  28
ATOM     28  N   UNL     1      30.663  -0.564  52.061  1.00  0.00    -0.324 N 
ATOM     29  H   UNL     1      30.526  -1.355  51.417  1.00  0.00     0.170 HD
BRANCH  28  30
ATOM     30  C   UNL     1      31.930  -0.001  52.224  1.00  0.00     0.227 A 
ATOM     31  N   UNL     1      32.319   0.944  53.071  1.00  0.00    -0.221 NA
ATOM     32  N   UNL     1      32.744  -0.539  51.280  1.00  0.00    -0.213 NA
ATOM     33  C   UNL     1      33.603   1.340  52.989  1.00  0.00     0.117 A 
ATOM     34  C   UNL     1      34.004  -0.091  51.216  1.00  0.00     0.077 A 
ATOM     35  C   UNL     1      34.452   0.857  52.067  1.00  0.00     0.049 A 
BRANCH  34  36
ATOM     36  C   UNL     1      34.863  -0.736  50.189  1.00  0.00     0.019 A 
ATOM     37  C   UNL     1      36.176  -0.299  49.950  1.00  0.00     0.013 A 
ATOM     38  C   UNL     1      34.372  -1.803  49.412  1.00  0.00     0.121 A 
ATOM     39  C   UNL     1      36.925  -0.923  48.960  1.00  0.00     0.021 A 
ATOM     40  N   UNL     1      35.086  -2.403  48.451  1.00  0.00    -0.264 NA
ATOM     41  C   UNL     1      36.347  -1.982  48.261  1.00  0.00     0.111 A 
ENDBRANCH  34  36
ENDBRANCH  28  30
ENDBRANCH   6  28
TORSDOF 7
ENDMDL
MODEL 2
REMARK VINA RESULT:   -13.509      2.228      3.697
REMARK INTER + INTRA:         -16.799
REMARK INTER:                 -15.597
REMARK INTRA:                  -1.202
REMARK CONF_INDEPENDENT:        2.088
REMARK UNBOUND:                -1.202
REMARK SMILES Cc1cn(-c2cc(NC(=O)c3ccc(C)c(Nc4nccc(-c5cccnc5)n4)c3)cc(C(F)(F)F)c2)cn1
REMARK SMILES IDX 11 1 12 2 13 3 14 4 15 5 16 6 30 7 9 8 10 9 8 10 7 12 6 13
REMARK SMILES IDX 31 14 5 15 32 16 37 17 4 18 3 19 38 20 2 21 39 22 1 23 33 24
REMARK SMILES IDX 34 25 35 26 36 27 17 28 18 30 19 31 29 32 20 33 22 34 21 35
REMARK SMILES IDX 23 36 24 37 28 38 25 39 27 40 26 41
REMARK H PARENT 8 11 17 29
ROOT
ATOM      1  C   UNL     1      28.323   1.321  53.432  1.00  0.00     0.042 A 
ATOM      2  C   UNL     1      28.051   0.707  54.663  1.00  0.00     0.014 A 
ATOM      3  C   UNL     1      28.791  -0.390  55.108  1.00  0.00     0.006 A 
ATOM      4  C   UNL     1      29.770  -0.966  54.315  1.00  0.00    -0.027 A 
ATOM      5  C   UNL     1      30.564  -2.166  54.810  1.00  0.00     0.046 C 
ATOM      6  C   UNL     1      29.975  -0.424  53.047  1.00  0.00     0.045 A 
ATOM      7  C   UNL     1      29.238   0.692  52.629  1.00  0.00     0.040 A 
ENDROOT
BRANCH   1   8
ATOM      8  C   UNL     1      27.513   2.398  52.829  1.00  0.00     0.255 C 
ATOM      9  O   UNL     1      27.889   2.787  51.750  1.00  0.00    -0.269 OA
ATOM     10  N   UNL     1      26.330   2.645  53.411  1.00  0.00    -0.322 N 
ATOM     11  H   UNL     1      26.110   2.115  54.266  1.00  0.00     0.170 HD
BRANCH  10  12
ATOM     12  C   UNL     1      25.375   3.550  52.966  1.00  0.00     0.044 A 
ATOM     13  C   UNL     1      25.232   3.837  51.586  1.00  0.00     0.052 A 
ATOM     14  C   UNL     1      24.608   4.295  53.888  1.00  0.00     0.039 A 
ATOM     15  C   UNL     1      24.267   4.739  51.128  1.00  0.00     0.049 A 
ATOM     16  C   UNL     1      23.610   5.197  53.419  1.00  0.00     0.060 A 
ATOM     17  C   UNL     1      23.482   5.427  52.047  1.00  0.00     0.039 A 
BRANCH  15  18
ATOM     18  N   UNL     1      24.090   4.998  49.761  1.00  0.00    -0.306 N 
ATOM     19  C   UNL     1      23.859   6.215  49.123  1.00  0.00     0.116 A 
ATOM     20  C   UNL     1      24.013   4.093  48.777  1.00  0.00     0.204 A 
ATOM     21  C   UNL     1      23.664   5.973  47.808  1.00  0.00     0.056 A 
ATOM     22  N   UNL     1      23.797   4.643  47.607  1.00  0.00    -0.242 NA
ATOM     23  C   UNL     1      23.399   6.972  46.709  1.00  0.00     0.068 C 
ENDBRANCH  15  18
BRANCH  16  24
ATOM     24  C   UNL     1      22.771   5.928  54.416  1.00  0.00     0.416 C 
ATOM     25  F   UNL     1      23.462   6.615  55.347  1.00  0.00    -0.166 F 
ATOM     26  F   UNL     1      22.064   6.888  53.833  1.00  0.00    -0.166 F 
ATOM     27  F   UNL     1      22.003   5.095  55.148  1.00  0.00    -0.166 F 
ENDBRANCH  16  24
ENDBRANCH  10  12
ENDBRANCH   1   8
BRANCH   6  28
ATOM     28  N   UNL     1      31.063  -0.883  52.294  1.00  0.00    -0.324 N 
ATOM     29  H   UNL     1      30.987  -1.752  51.747  1.00  0.00     0.170 HD
BRANCH  28  30
ATOM     30  C   UNL     1      32.252  -0.151  52.290  1.00  0.00     0.227 A 
ATOM     31  N   UNL     1      32.557   0.946  52.971  1.00  0.00    -0.221 NA
ATOM     32  N   UNL     1      33.080  -0.715  51.373  1.00  0.00    -0.213 NA
ATOM     33  C   UNL     1      33.772   1.481  52.746  1.00  0.00     0.117 A 
ATOM     34  C   UNL     1      34.264  -0.130  51.160  1.00  0.00     0.077 A 
ATOM     35  C   UNL     1      34.628   0.978  51.842  1.00  0.00     0.049 A 
BRANCH  34  36
ATOM     36  C   UNL     1      35.147  -0.805  50.174  1.00  0.00     0.019 A 
ATOM     37  C   UNL     1      36.536  -0.604  50.171  1.00  0.00     0.013 A 
ATOM     38  C   UNL     1      34.603  -1.662  49.197  1.00  0.00     0.121 A 
ATOM     39  C   UNL     1      37.309  -1.242  49.209  1.00  0.00     0.021 A 
ATOM     40  N   UNL     1      35.342  -2.274  48.262  1.00  0.00    -0.264 NA
ATOM     41  C   UNL     1      36.671  -2.084  48.298  1.00  0.00     0.111 A 
ENDBRANCH  34  36
ENDBRANCH  28  30
ENDBRANCH   6  28
TORSDOF 7
ENDMDL
MODEL 3
REMARK VINA RESULT:   -12.266      1.644      2.389
REMARK INTER + INTRA:         -15.852
REMARK INTER:                 -14.354
REMARK INTRA:                  -1.498
REMARK CONF_INDEPENDENT:        2.088
REMARK UNBOUND:                -1.498
REMARK SMILES Cc1cn(-c2cc(NC(=O)c3ccc(C)c(Nc4nccc(-c5cccnc5)n4)c3)cc(C(F)(F)F)c2)cn1
REMARK SMILES IDX 11 1 12 2 13 3 14 4 15 5 16 6 30 7 9 8 10 9 8 10 7 12 6 13
REMARK SMILES IDX 31 14 5 15 32 16 37 17 4 18 3 19 38 20 2 21 39 22 1 23 33 24
REMARK SMILES IDX 34 25 35 26 36 27 17 28 18 30 19 31 29 32 20 33 22 34 21 35
REMARK SMILES IDX 23 36 24 37 28 38 25 39 27 40 26 41
REMARK H PARENT 8 11 17 29
ROOT
ATOM      1  C   UNL     1      28.256   1.979  52.965  1.00  0.00     0.042 A 
ATOM      2  C   UNL     1      27.821   0.756  53.496  1.00  0.00     0.014 A 
ATOM      3  C   UNL     1      28.664  -0.041  54.272  1.00  0.00     0.006 A 
ATOM      4  C   UNL     1      29.990   0.304  54.478  1.00  0.00    -0.027 A 
ATOM      5  C   UNL     1      30.900  -0.579  55.319  1.00  0.00     0.046 C 
ATOM      6  C   UNL     1      30.457   1.466  53.866  1.00  0.00     0.045 A 
ATOM      7  C   UNL     1      29.589   2.265  53.112  1.00  0.00     0.040 A 
ENDROOT
BRANCH   1   8
ATOM      8  C   UNL     1      27.478   2.820  52.034  1.00  0.00     0.255 C 
ATOM      9  O   UNL     1      27.894   2.863  50.902  1.00  0.00    -0.269 OA
ATOM     10  N   UNL     1      26.277   3.230  52.471  1.00  0.00    -0.322 N 
ATOM     11  H   UNL     1      26.023   2.985  53.438  1.00  0.00     0.170 HD
BRANCH  10  12
ATOM     12  C   UNL     1      25.346   3.955  51.737  1.00  0.00     0.044 A 
ATOM     13  C   UNL     1      24.540   4.941  52.358  1.00  0.00     0.052 A 
ATOM     14  C   UNL     1      25.098   3.642  50.383  1.00  0.00     0.039 A 
ATOM     15  C   UNL     1      23.608   5.682  51.627  1.00  0.00     0.049 A 
ATOM     16  C   UNL     1      24.164   4.414  49.635  1.00  0.00     0.060 A 
ATOM     17  C   UNL     1      23.411   5.397  50.280  1.00  0.00     0.039 A 
BRANCH  15  18
ATOM     18  N   UNL     1      22.835   6.690  52.224  1.00  0.00    -0.306 N 
ATOM     19  C   UNL     1      22.865   8.065  52.001  1.00  0.00     0.116 A 
ATOM     20  C   UNL     1      21.952   6.539  53.218  1.00  0.00     0.204 A 
ATOM     21  C   UNL     1      22.006   8.652  52.862  1.00  0.00     0.056 A 
ATOM     22  N   UNL     1      21.420   7.677  53.593  1.00  0.00    -0.242 NA
ATOM     23  C   UNL     1      21.677  10.119  52.991  1.00  0.00     0.068 C 
ENDBRANCH  15  18
BRANCH  16  24
ATOM     24  C   UNL     1      23.965   4.100  48.187  1.00  0.00     0.416 C 
ATOM     25  F   UNL     1      22.678   4.012  47.795  1.00  0.00    -0.166 F 
ATOM     26  F   UNL     1      24.420   5.083  47.419  1.00  0.00    -0.166 F 
ATOM     27  F   UNL     1      24.478   2.900  47.847  1.00  0.00    -0.166 F 
ENDBRANCH  16  24
ENDBRANCH  10  12
ENDBRANCH   1   8
BRANCH   6  28
ATOM     28  N   UNL     1      31.743   1.919  54.190  1.00  0.00    -0.324 N 
ATOM     29  H   UNL     1      31.866   2.716  54.832  1.00  0.00     0.170 HD
BRANCH  28  30
ATOM     30  C   UNL     1      32.855   1.283  53.637  1.00  0.00     0.227 A 
ATOM     31  N   UNL     1      34.125   1.345  54.019  1.00  0.00    -0.221 NA
ATOM     32  N   UNL     1      32.439   0.607  52.536  1.00  0.00    -0.213 NA
ATOM     33  C   UNL     1      35.015   0.660  53.276  1.00  0.00     0.117 A 
ATOM     34  C   UNL     1      33.364  -0.031  51.811  1.00  0.00     0.077 A 
ATOM     35  C   UNL     1      34.666  -0.013  52.168  1.00  0.00     0.049 A 
BRANCH  34  36
ATOM     36  C   UNL     1      32.853  -0.784  50.636  1.00  0.00     0.019 A 
ATOM     37  C   UNL     1      31.477  -0.916  50.389  1.00  0.00     0.013 A 
ATOM     38  C   UNL     1      33.745  -1.403  49.739  1.00  0.00     0.121 A 
ATOM     39  C   UNL     1      31.056  -1.653  49.289  1.00  0.00     0.021 A 
ATOM     40  N   UNL     1      33.345  -2.121  48.681  1.00  0.00    -0.264 NA
ATOM     41  C   UNL     1      32.025  -2.210  48.455  1.00  0.00     0.111 A 
ENDBRANCH  34  36
ENDBRANCH  28  30
ENDBRANCH   6  28
TORSDOF 7
ENDMDL
MODEL 4
REMARK VINA RESULT:   -12.037      1.638      3.673
REMARK INTER + INTRA:         -15.725
REMARK INTER:                 -14.125
REMARK INTRA:                  -1.600
REMARK CONF_INDEPENDENT:        2.088
REMARK UNBOUND:                -1.600
REMARK SMILES Cc1cn(-c2cc(NC(=O)c3ccc(C)c(Nc4nccc(-c5cccnc5)n4)c3)cc(C(F)(F)F)c2)cn1
REMARK SMILES IDX 11 1 12 2 13 3 14 4 15 5 16 6 30 7 9 8 10 9 8 10 7 12 6 13
REMARK SMILES IDX 31 14 5 15 32 16 37 17 4 18 3 19 38 20 2 21 39 22 1 23 33 24
REMARK SMILES IDX 34 25 35 26 36 27 17 28 18 30 19 31 29 32 20 33 22 34 21 35
REMARK SMILES IDX 23 36 24 37 28 38 25 39 27 40 26 41
REMARK H PARENT 8 11 17 29
ROOT
ATOM      1  C   UNL     1      27.613   1.756  52.979  1.00  0.00     0.042 A 
ATOM      2  C   UNL     1      27.349   1.157  54.220  1.00  0.00     0.014 A 
ATOM      3  C   UNL     1      28.070   0.045  54.658  1.00  0.00     0.006 A 
ATOM      4  C   UNL     1      29.017  -0.562  53.849  1.00  0.00    -0.027 A 
ATOM      5  C   UNL     1      29.790  -1.779  54.337  1.00  0.00     0.046 C 
ATOM      6  C   UNL     1      29.210  -0.034  52.574  1.00  0.00     0.045 A 
ATOM      7  C   UNL     1      28.495   1.097  52.162  1.00  0.00     0.040 A 
ENDROOT
BRANCH   1   8
ATOM      8  C   UNL     1      26.819   2.849  52.385  1.00  0.00     0.255 C 
ATOM      9  O   UNL     1      27.069   3.103  51.232  1.00  0.00    -0.269 OA
ATOM     10  N   UNL     1      25.756   3.260  53.092  1.00  0.00    -0.322 N 
ATOM     11  H   UNL     1      25.615   2.831  54.017  1.00  0.00     0.170 HD
BRANCH  10  12
ATOM     12  C   UNL     1      24.827   4.212  52.690  1.00  0.00     0.044 A 
ATOM     13  C   UNL     1      23.907   4.766  53.614  1.00  0.00     0.052 A 
ATOM     14  C   UNL     1      24.698   4.558  51.327  1.00  0.00     0.039 A 
ATOM     15  C   UNL     1      22.976   5.731  53.221  1.00  0.00     0.049 A 
ATOM     16  C   UNL     1      23.764   5.558  50.932  1.00  0.00     0.060 A 
ATOM     17  C   UNL     1      22.896   6.101  51.883  1.00  0.00     0.039 A 
BRANCH  15  18
ATOM     18  N   UNL     1      22.089   6.318  54.137  1.00  0.00    -0.306 N 
ATOM     19  C   UNL     1      21.405   7.528  54.042  1.00  0.00     0.116 A 
ATOM     20  C   UNL     1      21.784   5.864  55.359  1.00  0.00     0.204 A 
ATOM     21  C   UNL     1      20.733   7.725  55.197  1.00  0.00     0.056 A 
ATOM     22  N   UNL     1      20.957   6.658  55.995  1.00  0.00    -0.242 NA
ATOM     23  C   UNL     1      19.836   8.882  55.564  1.00  0.00     0.068 C 
ENDBRANCH  15  18
BRANCH  16  24
ATOM     24  C   UNL     1      23.690   5.949  49.492  1.00  0.00     0.416 C 
ATOM     25  F   UNL     1      24.809   6.516  48.998  1.00  0.00    -0.166 F 
ATOM     26  F   UNL     1      23.557   4.881  48.714  1.00  0.00    -0.166 F 
ATOM     27  F   UNL     1      22.740   6.878  49.260  1.00  0.00    -0.166 F 
ENDBRANCH  16  24
ENDBRANCH  10  12
ENDBRANCH   1   8
BRANCH   6  28
ATOM     28  N   UNL     1      30.271  -0.526  51.803  1.00  0.00    -0.324 N 
ATOM     29  H   UNL     1      30.117  -1.299  51.139  1.00  0.00     0.170 HD
BRANCH  28  30
ATOM     30  C   UNL     1      31.540   0.040  51.940  1.00  0.00     0.227 A 
ATOM     31  N   UNL     1      32.651  -0.234  51.268  1.00  0.00    -0.221 NA
ATOM     32  N   UNL     1      31.492   0.913  52.979  1.00  0.00    -0.213 NA
ATOM     33  C   UNL     1      33.761   0.434  51.635  1.00  0.00     0.117 A 
ATOM     34  C   UNL     1      32.627   1.529  53.328  1.00  0.00     0.077 A 
ATOM     35  C   UNL     1      33.779   1.298  52.663  1.00  0.00     0.049 A 
BRANCH  34  36
ATOM     36  C   UNL     1      32.514   2.500  54.447  1.00  0.00     0.019 A 
ATOM     37  C   UNL     1      31.408   2.499  55.312  1.00  0.00     0.013 A 
ATOM     38  C   UNL     1      33.517   3.466  54.661  1.00  0.00     0.121 A 
ATOM     39  C   UNL     1      31.343   3.447  56.326  1.00  0.00     0.021 A 
ATOM     40  N   UNL     1      33.456   4.386  55.631  1.00  0.00    -0.264 NA
ATOM     41  C   UNL     1      32.400   4.346  56.460  1.00  0.00     0.111 A 
ENDBRANCH  34  36
ENDBRANCH  28  30
ENDBRANCH   6  28
TORSDOF 7
ENDMDL
MODEL 5
REMARK VINA RESULT:   -11.808      3.086      4.213
REMARK INTER + INTRA:         -14.934
REMARK INTER:                 -13.897
REMARK INTRA:                  -1.038
REMARK CONF_INDEPENDENT:        2.088
REMARK UNBOUND:                -1.038
REMARK SMILES Cc1cn(-c2cc(NC(=O)c3ccc(C)c(Nc4nccc(-c5cccnc5)n4)c3)cc(C(F)(F)F)c2)cn1
REMARK SMILES IDX 11 1 12 2 13 3 14 4 15 5 16 6 30 7 9 8 10 9 8 10 7 12 6 13
REMARK SMILES IDX 31 14 5 15 32 16 37 17 4 18 3 19 38 20 2 21 39 22 1 23 33 24
REMARK SMILES IDX 34 25 35 26 36 27 17 28 18 30 19 31 29 32 20 33 22 34 21 35
REMARK SMILES IDX 23 36 24 37 28 38 25 39 27 40 26 41
REMARK H PARENT 8 11 17 29
ROOT
ATOM      1  C   UNL     1      28.172   2.638  52.645  1.00  0.00     0.042 A 
ATOM      2  C   UNL     1      28.063   3.222  53.916  1.00  0.00     0.014 A 
ATOM      3  C   UNL     1      29.108   3.159  54.838  1.00  0.00     0.006 A 
ATOM      4  C   UNL     1      30.264   2.445  54.565  1.00  0.00    -0.027 A 
ATOM      5  C   UNL     1      31.394   2.378  55.583  1.00  0.00     0.046 C 
ATOM      6  C   UNL     1      30.337   1.776  53.344  1.00  0.00     0.045 A 
ATOM      7  C   UNL     1      29.287   1.873  52.422  1.00  0.00     0.040 A 
ENDROOT
BRANCH   1   8
ATOM      8  C   UNL     1      27.076   2.548  51.660  1.00  0.00     0.255 C 
ATOM      9  O   UNL     1      26.773   1.429  51.323  1.00  0.00    -0.269 OA
ATOM     10  N   UNL     1      26.380   3.674  51.445  1.00  0.00    -0.322 N 
ATOM     11  H   UNL     1      26.704   4.524  51.929  1.00  0.00     0.170 HD
BRANCH  10  12
ATOM     12  C   UNL     1      25.262   3.799  50.630  1.00  0.00     0.044 A 
ATOM     13  C   UNL     1      24.525   2.659  50.226  1.00  0.00     0.052 A 
ATOM     14  C   UNL     1      24.907   5.053  50.086  1.00  0.00     0.039 A 
ATOM     15  C   UNL     1      23.394   2.776  49.414  1.00  0.00     0.049 A 
ATOM     16  C   UNL     1      23.741   5.173  49.277  1.00  0.00     0.060 A 
ATOM     17  C   UNL     1      23.025   4.026  48.928  1.00  0.00     0.039 A 
BRANCH  15  18
ATOM     18  N   UNL     1      22.633   1.657  49.043  1.00  0.00    -0.306 N 
ATOM     19  C   UNL     1      22.276   0.548  49.808  1.00  0.00     0.116 A 
ATOM     20  C   UNL     1      22.160   1.378  47.822  1.00  0.00     0.204 A 
ATOM     21  C   UNL     1      21.614  -0.319  49.011  1.00  0.00     0.056 A 
ATOM     22  N   UNL     1      21.523   0.233  47.781  1.00  0.00    -0.242 NA
ATOM     23  C   UNL     1      21.013  -1.653  49.386  1.00  0.00     0.068 C 
ENDBRANCH  15  18
BRANCH  16  24
ATOM     24  C   UNL     1      23.354   6.523  48.765  1.00  0.00     0.416 C 
ATOM     25  F   UNL     1      22.032   6.782  48.785  1.00  0.00    -0.166 F 
ATOM     26  F   UNL     1      23.834   7.485  49.544  1.00  0.00    -0.166 F 
ATOM     27  F   UNL     1      23.688   6.694  47.469  1.00  0.00    -0.166 F 
ENDBRANCH  16  24
ENDBRANCH  10  12
ENDBRANCH   1   8
BRANCH   6  28
ATOM     28  N   UNL     1      31.554   1.186  52.979  1.00  0.00    -0.324 N 
ATOM     29  H   UNL     1      32.419   1.424  53.484  1.00  0.00     0.170 HD
BRANCH  28  30
ATOM     30  C   UNL     1      31.585   0.272  51.924  1.00  0.00     0.227 A 
ATOM     31  N   UNL     1      30.586  -0.421  51.393  1.00  0.00    -0.221 NA
ATOM     32  N   UNL     1      32.881   0.126  51.543  1.00  0.00    -0.213 NA
ATOM     33  C   UNL     1      30.901  -1.276  50.402  1.00  0.00     0.117 A 
ATOM     34  C   UNL     1      33.149  -0.758  50.575  1.00  0.00     0.077 A 
ATOM     35  C   UNL     1      32.164  -1.475  49.992  1.00  0.00     0.049 A 
BRANCH  34  36
ATOM     36  C   UNL     1      34.575  -0.855  50.171  1.00  0.00     0.019 A 
ATOM     37  C   UNL     1      35.582  -0.153  50.852  1.00  0.00     0.013 A 
ATOM     38  C   UNL     1      34.955  -1.649  49.071  1.00  0.00     0.121 A 
ATOM     39  C   UNL     1      36.896  -0.261  50.414  1.00  0.00     0.021 A 
ATOM     40  N   UNL     1      36.218  -1.751  48.639  1.00  0.00    -0.264 NA
ATOM     41  C   UNL     1      37.164  -1.090  49.325  1.00  0.00     0.111 A 
ENDBRANCH  34  36
ENDBRANCH  28  30
ENDBRANCH   6  28
TORSDOF 7
ENDMDL
MODEL 6
REMARK VINA RESULT:   -11.601      2.907      4.374
REMARK INTER + INTRA:         -14.649
REMARK INTER:                 -13.689
REMARK INTRA:                  -0.960
REMARK CONF_INDEPENDENT:        2.088
REMARK UNBOUND:                -0.960
REMARK SMILES Cc1cn(-c2cc(NC(=O)c3ccc(C)c(Nc4nccc(-c5cccnc5)n4)c3)cc(C(F)(F)F)c2)cn1
REMARK SMILES IDX 11 1 12 2 13 3 14 4 15 5 16 6 30 7 9 8 10 9 8 10 7 12 6 13
REMARK SMILES IDX 31 14 5 15 32 16 37 17 4 18 3 19 38 20 2 21 39 22 1 23 33 24
REMARK SMILES IDX 34 25 35 26 36 27 17 28 18 30 19 31 29 32 20 33 22 34 21 35
REMARK SMILES IDX 23 36 24 37 28 38 25 39 27 40 26 41
REMARK H PARENT 8 11 17 29
ROOT
ATOM      1  C   UNL     1      28.693   2.846  53.532  1.00  0.00     0.042 A 
ATOM      2  C   UNL     1      28.964   3.583  54.695  1.00  0.00     0.014 A 
ATOM      3  C   UNL     1      30.238   3.600  55.264  1.00  0.00     0.006 A 
ATOM      4  C   UNL     1      31.265   2.824  54.750  1.00  0.00    -0.027 A 
ATOM      5  C   UNL     1      32.648   2.847  55.386  1.00  0.00     0.046 C 
ATOM      6  C   UNL     1      30.974   2.010  53.657  1.00  0.00     0.045 A 
ATOM      7  C   UNL     1      29.696   2.026  53.085  1.00  0.00     0.040 A 
ENDROOT
BRANCH   1   8
ATOM      8  C   UNL     1      27.353   2.671  52.938  1.00  0.00     0.255 C 
ATOM      9  O   UNL     1      27.039   1.531  52.696  1.00  0.00    -0.269 OA
ATOM     10  N   UNL     1      26.547   3.743  52.967  1.00  0.00    -0.322 N 
ATOM     11  H   UNL     1      26.946   4.617  53.338  1.00  0.00     0.170 HD
BRANCH  10  12
ATOM     12  C   UNL     1      25.225   3.782  52.543  1.00  0.00     0.044 A 
ATOM     13  C   UNL     1      24.834   3.175  51.324  1.00  0.00     0.052 A 
ATOM     14  C   UNL     1      24.264   4.531  53.257  1.00  0.00     0.039 A 
ATOM     15  C   UNL     1      23.505   3.201  50.894  1.00  0.00     0.049 A 
ATOM     16  C   UNL     1      22.906   4.537  52.829  1.00  0.00     0.060 A 
ATOM     17  C   UNL     1      22.558   3.900  51.636  1.00  0.00     0.039 A 
BRANCH  15  18
ATOM     18  N   UNL     1      23.100   2.567  49.710  1.00  0.00    -0.306 N 
ATOM     19  C   UNL     1      22.324   1.420  49.551  1.00  0.00     0.116 A 
ATOM     20  C   UNL     1      23.462   2.892  48.463  1.00  0.00     0.204 A 
ATOM     21  C   UNL     1      22.263   1.130  48.233  1.00  0.00     0.056 A 
ATOM     22  N   UNL     1      22.954   2.082  47.567  1.00  0.00    -0.242 NA
ATOM     23  C   UNL     1      21.525  -0.004  47.565  1.00  0.00     0.068 C 
ENDBRANCH  15  18
BRANCH  16  24
ATOM     24  C   UNL     1      21.898   5.288  53.637  1.00  0.00     0.416 C 
ATOM     25  F   UNL     1      22.415   6.170  54.516  1.00  0.00    -0.166 F 
ATOM     26  F   UNL     1      21.156   6.073  52.865  1.00  0.00    -0.166 F 
ATOM     27  F   UNL     1      21.152   4.474  54.412  1.00  0.00    -0.166 F 
ENDBRANCH  16  24
ENDBRANCH  10  12
ENDBRANCH   1   8
BRANCH   6  28
ATOM     28  N   UNL     1      32.031   1.344  53.022  1.00  0.00    -0.324 N 
ATOM     29  H   UNL     1      33.002   1.504  53.325  1.00  0.00     0.170 HD
BRANCH  28  30
ATOM     30  C   UNL     1      31.756   0.462  51.975  1.00  0.00     0.227 A 
ATOM     31  N   UNL     1      30.587  -0.026  51.583  1.00  0.00    -0.221 NA
ATOM     32  N   UNL     1      32.942   0.092  51.427  1.00  0.00    -0.213 NA
ATOM     33  C   UNL     1      30.608  -0.903  50.561  1.00  0.00     0.117 A 
ATOM     34  C   UNL     1      32.916  -0.806  50.435  1.00  0.00     0.077 A 
ATOM     35  C   UNL     1      31.749  -1.319  49.989  1.00  0.00     0.049 A 
BRANCH  34  36
ATOM     36  C   UNL     1      34.236  -1.151  49.846  1.00  0.00     0.019 A 
ATOM     37  C   UNL     1      35.310  -0.247  49.867  1.00  0.00     0.013 A 
ATOM     38  C   UNL     1      34.440  -2.403  49.232  1.00  0.00     0.121 A 
ATOM     39  C   UNL     1      36.513  -0.615  49.278  1.00  0.00     0.021 A 
ATOM     40  N   UNL     1      35.595  -2.760  48.657  1.00  0.00    -0.264 NA
ATOM     41  C   UNL     1      36.613  -1.886  48.713  1.00  0.00     0.111 A 
ENDBRANCH  34  36
ENDBRANCH  28  30
ENDBRANCH   6  28
TORSDOF 7
ENDMDL
MODEL 7
REMARK VINA RESULT:   -11.545      3.763     11.782
REMARK INTER + INTRA:         -14.784
REMARK INTER:                 -13.633
REMARK INTRA:                  -1.151
REMARK CONF_INDEPENDENT:        2.088
REMARK UNBOUND:                -1.151
REMARK SMILES Cc1cn(-c2cc(NC(=O)c3ccc(C)c(Nc4nccc(-c5cccnc5)n4)c3)cc(C(F)(F)F)c2)cn1
REMARK SMILES IDX 11 1 12 2 13 3 14 4 15 5 16 6 30 7 9 8 10 9 8 10 7 12 6 13
REMARK SMILES IDX 31 14 5 15 32 16 37 17 4 18 3 19 38 20 2 21 39 22 1 23 33 24
REMARK SMILES IDX 34 25 35 26 36 27 17 28 18 30 19 31 29 32 20 33 22 34 21 35
REMARK SMILES IDX 23 36 24 37 28 38 25 39 27 40 26 41
REMARK H PARENT 8 11 17 29
ROOT
ATOM      1  C   UNL     1      25.920   3.780  51.861  1.00  0.00     0.042 A 
ATOM      2  C   UNL     1      25.273   4.193  50.687  1.00  0.00     0.014 A 
ATOM      3  C   UNL     1      24.142   5.009  50.728  1.00  0.00     0.006 A 
ATOM      4  C   UNL     1      23.564   5.377  51.933  1.00  0.00    -0.027 A 
ATOM      5  C   UNL     1      22.326   6.261  51.962  1.00  0.00     0.046 C 
ATOM      6  C   UNL     1      24.142   4.884  53.102  1.00  0.00     0.045 A 
ATOM      7  C   UNL     1      25.291   4.087  53.040  1.00  0.00     0.040 A 
ENDROOT
BRANCH   1   8
ATOM      8  C   UNL     1      27.039   2.819  51.915  1.00  0.00     0.255 C 
ATOM      9  O   UNL     1      27.762   2.811  50.950  1.00  0.00    -0.269 OA
ATOM     10  N   UNL     1      27.275   2.252  53.108  1.00  0.00    -0.322 N 
ATOM     11  H   UNL     1      26.622   2.479  53.871  1.00  0.00     0.170 HD
BRANCH  10  12
ATOM     12  C   UNL     1      28.320   1.388  53.408  1.00  0.00     0.044 A 
ATOM     13  C   UNL     1      29.627   1.629  52.917  1.00  0.00     0.052 A 
ATOM     14  C   UNL     1      28.079   0.185  54.107  1.00  0.00     0.039 A 
ATOM     15  C   UNL     1      30.687   0.771  53.222  1.00  0.00     0.049 A 
ATOM     16  C   UNL     1      29.164  -0.677  54.435  1.00  0.00     0.060 A 
ATOM     17  C   UNL     1      30.443  -0.385  53.957  1.00  0.00     0.039 A 
BRANCH  15  18
ATOM     18  N   UNL     1      31.993   1.024  52.776  1.00  0.00    -0.306 N 
ATOM     19  C   UNL     1      32.634   0.554  51.631  1.00  0.00     0.116 A 
ATOM     20  C   UNL     1      32.942   1.711  53.423  1.00  0.00     0.204 A 
ATOM     21  C   UNL     1      33.914   0.987  51.656  1.00  0.00     0.056 A 
ATOM     22  N   UNL     1      34.077   1.736  52.769  1.00  0.00    -0.242 NA
ATOM     23  C   UNL     1      34.994   0.753  50.627  1.00  0.00     0.068 C 
ENDBRANCH  15  18
BRANCH  16  24
ATOM     24  C   UNL     1      28.889  -1.913  55.229  1.00  0.00     0.416 C 
ATOM     25  F   UNL     1      28.064  -2.798  54.636  1.00  0.00    -0.166 F 
ATOM     26  F   UNL     1      29.994  -2.632  55.390  1.00  0.00    -0.166 F 
ATOM     27  F   UNL     1      28.273  -1.645  56.399  1.00  0.00    -0.166 F 
ENDBRANCH  16  24
ENDBRANCH  10  12
ENDBRANCH   1   8
BRANCH   6  28
ATOM     28  N   UNL     1      23.677   5.371  54.331  1.00  0.00    -0.324 N 
ATOM     29  H   UNL     1      22.716   5.167  54.640  1.00  0.00     0.170 HD
BRANCH  28  30
ATOM     30  C   UNL     1      24.527   6.135  55.133  1.00  0.00     0.227 A 
ATOM     31  N   UNL     1      25.825   6.369  54.984  1.00  0.00    -0.221 NA
ATOM     32  N   UNL     1      23.807   6.572  56.198  1.00  0.00    -0.213 NA
ATOM     33  C   UNL     1      26.419   7.112  55.936  1.00  0.00     0.117 A 
ATOM     34  C   UNL     1      24.448   7.280  57.134  1.00  0.00     0.077 A 
ATOM     35  C   UNL     1      25.764   7.559  57.019  1.00  0.00     0.049 A 
BRANCH  34  36
ATOM     36  C   UNL     1      23.608   7.764  58.261  1.00  0.00     0.019 A 
ATOM     37  C   UNL     1      24.113   8.649  59.227  1.00  0.00     0.013 A 
ATOM     38  C   UNL     1      22.275   7.330  58.398  1.00  0.00     0.121 A 
ATOM     39  C   UNL     1      23.290   9.048  60.272  1.00  0.00     0.021 A 
ATOM     40  N   UNL     1      21.480   7.705  59.408  1.00  0.00    -0.264 NA
ATOM     41  C   UNL     1      21.980   8.572  60.303  1.00  0.00     0.111 A 
ENDBRANCH  34  36
ENDBRANCH  28  30
ENDBRANCH   6  28
TORSDOF 7
ENDMDL
MODEL 8
REMARK VINA RESULT:   -11.493      4.284     10.591
REMARK INTER + INTRA:         -14.837
REMARK INTER:                 -13.581
REMARK INTRA:                  -1.257
REMARK CONF_INDEPENDENT:        2.088
REMARK UNBOUND:                -1.257
REMARK SMILES Cc1cn(-c2cc(NC(=O)c3ccc(C)c(Nc4nccc(-c5cccnc5)n4)c3)cc(C(F)(F)F)c2)cn1
REMARK SMILES IDX 11 1 12 2 13 3 14 4 15 5 16 6 30 7 9 8 10 9 8 10 7 12 6 13
REMARK SMILES IDX 31 14 5 15 32 16 37 17 4 18 3 19 38 20 2 21 39 22 1 23 33 24
REMARK SMILES IDX 34 25 35 26 36 27 17 28 18 30 19 31 29 32 20 33 22 34 21 35
REMARK SMILES IDX 23 36 24 37 28 38 25 39 27 40 26 41
REMARK H PARENT 8 11 17 29
ROOT
ATOM      1  C   UNL     1      25.851   4.147  52.948  1.00  0.00     0.042 A 
ATOM      2  C   UNL     1      25.650   5.046  54.006  1.00  0.00     0.014 A 
ATOM      3  C   UNL     1      24.603   5.970  53.987  1.00  0.00     0.006 A 
ATOM      4  C   UNL     1      23.773   6.091  52.885  1.00  0.00    -0.027 A 
ATOM      5  C   UNL     1      22.640   7.108  52.875  1.00  0.00     0.046 C 
ATOM      6  C   UNL     1      24.032   5.272  51.787  1.00  0.00     0.045 A 
ATOM      7  C   UNL     1      25.071   4.334  51.836  1.00  0.00     0.040 A 
ENDROOT
BRANCH   1   8
ATOM      8  C   UNL     1      27.000   3.229  52.828  1.00  0.00     0.255 C 
ATOM      9  O   UNL     1      27.784   3.492  51.949  1.00  0.00    -0.269 OA
ATOM     10  N   UNL     1      27.181   2.372  53.844  1.00  0.00    -0.322 N 
ATOM     11  H   UNL     1      26.472   2.375  54.591  1.00  0.00     0.170 HD
BRANCH  10  12
ATOM     12  C   UNL     1      28.238   1.480  53.981  1.00  0.00     0.044 A 
ATOM     13  C   UNL     1      29.522   1.790  53.468  1.00  0.00     0.052 A 
ATOM     14  C   UNL     1      28.027   0.196  54.527  1.00  0.00     0.039 A 
ATOM     15  C   UNL     1      30.593   0.904  53.610  1.00  0.00     0.049 A 
ATOM     16  C   UNL     1      29.125  -0.697  54.691  1.00  0.00     0.060 A 
ATOM     17  C   UNL     1      30.381  -0.339  54.197  1.00  0.00     0.039 A 
BRANCH  15  18
ATOM     18  N   UNL     1      31.878   1.219  53.143  1.00  0.00    -0.306 N 
ATOM     19  C   UNL     1      32.562   0.703  52.044  1.00  0.00     0.116 A 
ATOM     20  C   UNL     1      32.765   2.034  53.727  1.00  0.00     0.204 A 
ATOM     21  C   UNL     1      33.803   1.236  52.030  1.00  0.00     0.056 A 
ATOM     22  N   UNL     1      33.900   2.091  53.072  1.00  0.00    -0.242 NA
ATOM     23  C   UNL     1      34.905   0.998  51.025  1.00  0.00     0.068 C 
ENDBRANCH  15  18
BRANCH  16  24
ATOM     24  C   UNL     1      28.884  -2.028  55.327  1.00  0.00     0.416 C 
ATOM     25  F   UNL     1      28.070  -2.850  54.636  1.00  0.00    -0.166 F 
ATOM     26  F   UNL     1      30.005  -2.737  55.387  1.00  0.00    -0.166 F 
ATOM     27  F   UNL     1      28.276  -1.920  56.526  1.00  0.00    -0.166 F 
ENDBRANCH  16  24
ENDBRANCH  10  12
ENDBRANCH   1   8
BRANCH   6  28
ATOM     28  N   UNL     1      23.112   5.261  50.731  1.00  0.00    -0.324 N 
ATOM     29  H   UNL     1      22.221   5.772  50.813  1.00  0.00     0.170 HD
BRANCH  28  30
ATOM     30  C   UNL     1      23.411   4.553  49.566  1.00  0.00     0.227 A 
ATOM     31  N   UNL     1      24.072   4.961  48.490  1.00  0.00    -0.221 NA
ATOM     32  N   UNL     1      22.827   3.331  49.666  1.00  0.00    -0.213 NA
ATOM     33  C   UNL     1      24.183   4.080  47.478  1.00  0.00     0.117 A 
ATOM     34  C   UNL     1      22.937   2.502  48.621  1.00  0.00     0.077 A 
ATOM     35  C   UNL     1      23.615   2.864  47.511  1.00  0.00     0.049 A 
BRANCH  34  36
ATOM     36  C   UNL     1      22.310   1.165  48.793  1.00  0.00     0.019 A 
ATOM     37  C   UNL     1      22.275   0.524  50.042  1.00  0.00     0.013 A 
ATOM     38  C   UNL     1      21.744   0.494  47.692  1.00  0.00     0.121 A 
ATOM     39  C   UNL     1      21.699  -0.736  50.138  1.00  0.00     0.021 A 
ATOM     40  N   UNL     1      21.194  -0.724  47.777  1.00  0.00    -0.264 NA
ATOM     41  C   UNL     1      21.151  -1.303  48.988  1.00  0.00     0.111 A 
ENDBRANCH  34  36
ENDBRANCH  28  30
ENDBRANCH   6  28
TORSDOF 7
ENDMDL
MODEL 9
REMARK VINA RESULT:   -11.484      4.110     11.199
REMARK INTER + INTRA:         -14.751
REMARK INTER:                 -13.573
REMARK INTRA:                  -1.179
REMARK CONF_INDEPENDENT:        2.088
REMARK UNBOUND:                -1.179
REMARK SMILES Cc1cn(-c2cc(NC(=O)c3ccc(C)c(Nc4nccc(-c5cccnc5)n4)c3)cc(C(F)(F)F)c2)cn1
REMARK SMILES IDX 11 1 12 2 13 3 14 4 15 5 16 6 30 7 9 8 10 9 8 10 7 12 6 13
REMARK SMILES IDX 31 14 5 15 32 16 37 17 4 18 3 19 38 20 2 21 39 22 1 23 33 24
REMARK SMILES IDX 34 25 35 26 36 27 17 28 18 30 19 31 29 32 20 33 22 34 21 35
REMARK SMILES IDX 23 36 24 37 28 38 25 39 27 40 26 41
REMARK H PARENT 8 11 17 29
ROOT
ATOM      1  C   UNL     1      25.838   3.831  51.984  1.00  0.00     0.042 A 
ATOM      2  C   UNL     1      25.263   4.336  50.808  1.00  0.00     0.014 A 
ATOM      3  C   UNL     1      24.133   5.153  50.844  1.00  0.00     0.006 A 
ATOM      4  C   UNL     1      23.485   5.431  52.036  1.00  0.00    -0.027 A 
ATOM      5  C   UNL     1      22.248   6.318  52.060  1.00  0.00     0.046 C 
ATOM      6  C   UNL     1      23.990   4.848  53.197  1.00  0.00     0.045 A 
ATOM      7  C   UNL     1      25.140   4.051  53.143  1.00  0.00     0.040 A 
ENDROOT
BRANCH   1   8
ATOM      8  C   UNL     1      26.951   2.862  52.031  1.00  0.00     0.255 C 
ATOM      9  O   UNL     1      27.665   2.845  51.058  1.00  0.00    -0.269 OA
ATOM     10  N   UNL     1      27.195   2.299  53.224  1.00  0.00    -0.322 N 
ATOM     11  H   UNL     1      26.551   2.534  53.992  1.00  0.00     0.170 HD
BRANCH  10  12
ATOM     12  C   UNL     1      28.237   1.429  53.517  1.00  0.00     0.044 A 
ATOM     13  C   UNL     1      29.549   1.679  53.043  1.00  0.00     0.052 A 
ATOM     14  C   UNL     1      27.989   0.213  54.192  1.00  0.00     0.039 A 
ATOM     15  C   UNL     1      30.605   0.814  53.341  1.00  0.00     0.049 A 
ATOM     16  C   UNL     1      29.071  -0.655  54.514  1.00  0.00     0.060 A 
ATOM     17  C   UNL     1      30.354  -0.355  54.052  1.00  0.00     0.039 A 
BRANCH  15  18
ATOM     18  N   UNL     1      31.916   1.074  52.912  1.00  0.00    -0.306 N 
ATOM     19  C   UNL     1      32.586   0.579  51.795  1.00  0.00     0.116 A 
ATOM     20  C   UNL     1      32.840   1.798  53.555  1.00  0.00     0.204 A 
ATOM     21  C   UNL     1      33.858   1.034  51.830  1.00  0.00     0.056 A 
ATOM     22  N   UNL     1      33.988   1.821  52.921  1.00  0.00    -0.242 NA
ATOM     23  C   UNL     1      34.961   0.786  50.830  1.00  0.00     0.068 C 
ENDBRANCH  15  18
BRANCH  16  24
ATOM     24  C   UNL     1      28.788  -1.906  55.281  1.00  0.00     0.416 C 
ATOM     25  F   UNL     1      27.917  -2.750  54.694  1.00  0.00    -0.166 F 
ATOM     26  F   UNL     1      29.876  -2.659  55.383  1.00  0.00    -0.166 F 
ATOM     27  F   UNL     1      28.221  -1.655  56.479  1.00  0.00    -0.166 F 
ENDBRANCH  16  24
ENDBRANCH  10  12
ENDBRANCH   1   8
BRANCH   6  28
ATOM     28  N   UNL     1      23.453   5.242  54.430  1.00  0.00    -0.324 N 
ATOM     29  H   UNL     1      22.763   4.647  54.909  1.00  0.00     0.170 HD
BRANCH  28  30
ATOM     30  C   UNL     1      23.861   6.448  55.002  1.00  0.00     0.227 A 
ATOM     31  N   UNL     1      23.787   7.675  54.502  1.00  0.00    -0.221 NA
ATOM     32  N   UNL     1      24.453   6.161  56.190  1.00  0.00    -0.213 NA
ATOM     33  C   UNL     1      24.300   8.668  55.253  1.00  0.00     0.117 A 
ATOM     34  C   UNL     1      24.977   7.176  56.886  1.00  0.00     0.077 A 
ATOM     35  C   UNL     1      24.911   8.445  56.427  1.00  0.00     0.049 A 
BRANCH  34  36
ATOM     36  C   UNL     1      25.582   6.814  58.194  1.00  0.00     0.019 A 
ATOM     37  C   UNL     1      24.792   6.420  59.286  1.00  0.00     0.013 A 
ATOM     38  C   UNL     1      26.978   6.873  58.378  1.00  0.00     0.121 A 
ATOM     39  C   UNL     1      25.411   6.117  60.492  1.00  0.00     0.021 A 
ATOM     40  N   UNL     1      27.579   6.590  59.541  1.00  0.00    -0.264 NA
ATOM     41  C   UNL     1      26.801   6.191  60.560  1.00  0.00     0.111 A 
ENDBRANCH  34  36
ENDBRANCH  28  30
ENDBRANCH   6  28
TORSDOF 7
ENDMDL
MODEL 10
REMARK VINA RESULT:   -11.438      2.103      3.096
REMARK INTER + INTRA:         -14.831
REMARK INTER:                 -13.526
REMARK INTRA:                  -1.305
REMARK CONF_INDEPENDENT:        2.088
REMARK UNBOUND:                -1.305
REMARK SMILES Cc1cn(-c2cc(NC(=O)c3ccc(C)c(Nc4nccc(-c5cccnc5)n4)c3)cc(C(F)(F)F)c2)cn1
REMARK SMILES IDX 11 1 12 2 13 3 14 4 15 5 16 6 30 7 9 8 10 9 8 10 7 12 6 13
REMARK SMILES IDX 31 14 5 15 32 16 37 17 4 18 3 19 38 20 2 21 39 22 1 23 33 24
REMARK SMILES IDX 34 25 35 26 36 27 17 28 18 30 19 31 29 32 20 33 22 34 21 35
REMARK SMILES IDX 23 36 24 37 28 38 25 39 27 40 26 41
REMARK H PARENT 8 11 17 29
ROOT
ATOM      1  C   UNL     1      26.991   2.404  52.392  1.00  0.00     0.042 A 
ATOM      2  C   UNL     1      27.150   1.035  52.130  1.00  0.00     0.014 A 
ATOM      3  C   UNL     1      27.933   0.223  52.953  1.00  0.00     0.006 A 
ATOM      4  C   UNL     1      28.651   0.755  54.012  1.00  0.00    -0.027 A 
ATOM      5  C   UNL     1      29.507  -0.141  54.896  1.00  0.00     0.046 C 
ATOM      6  C   UNL     1      28.580   2.132  54.215  1.00  0.00     0.045 A 
ATOM      7  C   UNL     1      27.769   2.925  53.393  1.00  0.00     0.040 A 
ENDROOT
BRANCH   1   8
ATOM      8  C   UNL     1      26.290   3.356  51.508  1.00  0.00     0.255 C 
ATOM      9  O   UNL     1      26.509   3.225  50.329  1.00  0.00    -0.269 OA
ATOM     10  N   UNL     1      25.312   4.079  52.075  1.00  0.00    -0.322 N 
ATOM     11  H   UNL     1      25.173   3.963  53.089  1.00  0.00     0.170 HD
BRANCH  10  12
ATOM     12  C   UNL     1      24.471   4.969  51.419  1.00  0.00     0.044 A 
ATOM     13  C   UNL     1      23.802   5.996  52.131  1.00  0.00     0.052 A 
ATOM     14  C   UNL     1      24.169   4.796  50.051  1.00  0.00     0.039 A 
ATOM     15  C   UNL     1      22.962   6.902  51.478  1.00  0.00     0.049 A 
ATOM     16  C   UNL     1      23.330   5.734  49.384  1.00  0.00     0.060 A 
ATOM     17  C   UNL     1      22.715   6.750  50.118  1.00  0.00     0.039 A 
BRANCH  15  18
ATOM     18  N   UNL     1      22.328   7.948  52.167  1.00  0.00    -0.306 N 
ATOM     19  C   UNL     1      21.482   7.883  53.272  1.00  0.00     0.116 A 
ATOM     20  C   UNL     1      22.336   9.245  51.836  1.00  0.00     0.204 A 
ATOM     21  C   UNL     1      21.041   9.131  53.540  1.00  0.00     0.056 A 
ATOM     22  N   UNL     1      21.612   9.973  52.651  1.00  0.00    -0.242 NA
ATOM     23  C   UNL     1      20.120   9.572  54.652  1.00  0.00     0.068 C 
ENDBRANCH  15  18
BRANCH  16  24
ATOM     24  C   UNL     1      23.076   5.562  47.921  1.00  0.00     0.416 C 
ATOM     25  F   UNL     1      24.174   5.616  47.142  1.00  0.00    -0.166 F 
ATOM     26  F   UNL     1      22.612   4.346  47.658  1.00  0.00    -0.166 F 
ATOM     27  F   UNL     1      22.287   6.534  47.420  1.00  0.00    -0.166 F 
ENDBRANCH  16  24
ENDBRANCH  10  12
ENDBRANCH   1   8
BRANCH   6  28
ATOM     28  N   UNL     1      29.163   2.667  55.371  1.00  0.00    -0.324 N 
ATOM     29  H   UNL     1      28.589   2.847  56.206  1.00  0.00     0.170 HD
BRANCH  28  30
ATOM     30  C   UNL     1      30.530   2.954  55.381  1.00  0.00     0.227 A 
ATOM     31  N   UNL     1      31.182   3.871  56.083  1.00  0.00    -0.221 NA
ATOM     32  N   UNL     1      31.124   2.160  54.453  1.00  0.00    -0.213 NA
ATOM     33  C   UNL     1      32.508   3.968  55.868  1.00  0.00     0.117 A 
ATOM     34  C   UNL     1      32.438   2.314  54.252  1.00  0.00     0.077 A 
ATOM     35  C   UNL     1      33.149   3.222  54.955  1.00  0.00     0.049 A 
BRANCH  34  36
ATOM     36  C   UNL     1      33.047   1.399  53.253  1.00  0.00     0.019 A 
ATOM     37  C   UNL     1      32.284   0.815  52.229  1.00  0.00     0.013 A 
ATOM     38  C   UNL     1      34.417   1.078  53.318  1.00  0.00     0.121 A 
ATOM     39  C   UNL     1      32.902  -0.053  51.338  1.00  0.00     0.021 A 
ATOM     40  N   UNL     1      35.016   0.235  52.467  1.00  0.00    -0.264 NA
ATOM     41  C   UNL     1      34.269  -0.288  51.482  1.00  0.00     0.111 A 
ENDBRANCH  34  36
ENDBRANCH  28  30
ENDBRANCH   6  28
TORSDOF 7
ENDMDL
MODEL 11
REMARK VINA RESULT:   -11.220      4.715      8.301
REMARK INTER + INTRA:         -14.260
REMARK INTER:                 -13.308
REMARK INTRA:                  -0.952
REMARK CONF_INDEPENDENT:        2.088
REMARK UNBOUND:                -0.952
REMARK SMILES Cc1cn(-c2cc(NC(=O)c3ccc(C)c(Nc4nccc(-c5cccnc5)n4)c3)cc(C(F)(F)F)c2)cn1
REMARK SMILES IDX 11 1 12 2 13 3 14 4 15 5 16 6 30 7 9 8 10 9 8 10 7 12 6 13
REMARK SMILES IDX 31 14 5 15 32 16 37 17 4 18 3 19 38 20 2 21 39 22 1 23 33 24
REMARK SMILES IDX 34 25 35 26 36 27 17 28 18 30 19 31 29 32 20 33 22 34 21 35
REMARK SMILES IDX 23 36 24 37 28 38 25 39 27 40 26 41
REMARK H PARENT 8 11 17 29
ROOT
ATOM      1  C   UNL     1      34.288  -0.614  50.687  1.00  0.00     0.042 A 
ATOM      2  C   UNL     1      34.394  -1.904  50.146  1.00  0.00     0.014 A 
ATOM      3  C   UNL     1      35.429  -2.244  49.274  1.00  0.00     0.006 A 
ATOM      4  C   UNL     1      36.346  -1.299  48.844  1.00  0.00    -0.027 A 
ATOM      5  C   UNL     1      37.465  -1.682  47.887  1.00  0.00     0.046 C 
ATOM      6  C   UNL     1      36.185   0.010  49.296  1.00  0.00     0.045 A 
ATOM      7  C   UNL     1      35.154   0.325  50.190  1.00  0.00     0.040 A 
ENDROOT
BRANCH   1   8
ATOM      8  C   UNL     1      33.161  -0.134  51.511  1.00  0.00     0.255 C 
ATOM      9  O   UNL     1      33.186   1.039  51.790  1.00  0.00    -0.269 OA
ATOM     10  N   UNL     1      32.124  -0.976  51.642  1.00  0.00    -0.322 N 
ATOM     11  H   UNL     1      32.222  -1.909  51.217  1.00  0.00     0.170 HD
BRANCH  10  12
ATOM     12  C   UNL     1      30.930  -0.703  52.298  1.00  0.00     0.044 A 
ATOM     13  C   UNL     1      30.125   0.398  51.916  1.00  0.00     0.052 A 
ATOM     14  C   UNL     1      30.553  -1.445  53.439  1.00  0.00     0.039 A 
ATOM     15  C   UNL     1      28.918   0.674  52.564  1.00  0.00     0.049 A 
ATOM     16  C   UNL     1      29.312  -1.176  54.083  1.00  0.00     0.060 A 
ATOM     17  C   UNL     1      28.533  -0.099  53.655  1.00  0.00     0.039 A 
BRANCH  15  18
ATOM     18  N   UNL     1      28.093   1.737  52.166  1.00  0.00    -0.306 N 
ATOM     19  C   UNL     1      27.123   2.416  52.902  1.00  0.00     0.116 A 
ATOM     20  C   UNL     1      28.005   2.268  50.941  1.00  0.00     0.204 A 
ATOM     21  C   UNL     1      26.521   3.307  52.084  1.00  0.00     0.056 A 
ATOM     22  N   UNL     1      27.109   3.221  50.871  1.00  0.00    -0.242 NA
ATOM     23  C   UNL     1      25.422   4.285  52.425  1.00  0.00     0.068 C 
ENDBRANCH  15  18
BRANCH  16  24
ATOM     24  C   UNL     1      28.908  -2.017  55.251  1.00  0.00     0.416 C 
ATOM     25  F   UNL     1      28.034  -3.003  54.969  1.00  0.00    -0.166 F 
ATOM     26  F   UNL     1      29.944  -2.697  55.730  1.00  0.00    -0.166 F 
ATOM     27  F   UNL     1      28.277  -1.301  56.205  1.00  0.00    -0.166 F 
ENDBRANCH  16  24
ENDBRANCH  10  12
ENDBRANCH   1   8
BRANCH   6  28
ATOM     28  N   UNL     1      37.188   0.944  49.007  1.00  0.00    -0.324 N 
ATOM     29  H   UNL     1      36.940   1.881  48.659  1.00  0.00     0.170 HD
BRANCH  28  30
ATOM     30  C   UNL     1      38.527   0.593  49.193  1.00  0.00     0.227 A 
ATOM     31  N   UNL     1      39.072  -0.118  50.171  1.00  0.00    -0.221 NA
ATOM     32  N   UNL     1      39.249   1.187  48.209  1.00  0.00    -0.213 NA
ATOM     33  C   UNL     1      40.410  -0.273  50.135  1.00  0.00     0.117 A 
ATOM     34  C   UNL     1      40.578   1.032  48.232  1.00  0.00     0.077 A 
ATOM     35  C   UNL     1      41.178   0.302  49.197  1.00  0.00     0.049 A 
BRANCH  34  36
ATOM     36  C   UNL     1      41.319   1.672  47.114  1.00  0.00     0.019 A 
ATOM     37  C   UNL     1      40.649   2.286  46.044  1.00  0.00     0.013 A 
ATOM     38  C   UNL     1      42.727   1.664  47.093  1.00  0.00     0.121 A 
ATOM     39  C   UNL     1      41.394   2.846  45.014  1.00  0.00     0.021 A 
ATOM     40  N   UNL     1      43.451   2.195  46.099  1.00  0.00    -0.264 NA
ATOM     41  C   UNL     1      42.785   2.799  45.100  1.00  0.00     0.111 A 
ENDBRANCH  34  36
ENDBRANCH  28  30
ENDBRANCH   6  28
TORSDOF 7
ENDMDL
MODEL 12
REMARK VINA RESULT:   -11.205      3.690     12.056
REMARK INTER + INTRA:         -14.502
REMARK INTER:                 -13.293
REMARK INTRA:                  -1.208
REMARK CONF_INDEPENDENT:        2.088
REMARK UNBOUND:                -1.208
REMARK SMILES Cc1cn(-c2cc(NC(=O)c3ccc(C)c(Nc4nccc(-c5cccnc5)n4)c3)cc(C(F)(F)F)c2)cn1
REMARK SMILES IDX 11 1 12 2 13 3 14 4 15 5 16 6 30 7 9 8 10 9 8 10 7 12 6 13
REMARK SMILES IDX 31 14 5 15 32 16 37 17 4 18 3 19 38 20 2 21 39 22 1 23 33 24
REMARK SMILES IDX 34 25 35 26 36 27 17 28 18 30 19 31 29 32 20 33 22 34 21 35
REMARK SMILES IDX 23 36 24 37 28 38 25 39 27 40 26 41
REMARK H PARENT 8 11 17 29
ROOT
ATOM      1  C   UNL     1      26.112   3.397  51.595  1.00  0.00     0.042 A 
ATOM      2  C   UNL     1      25.475   3.757  50.398  1.00  0.00     0.014 A 
ATOM      3  C   UNL     1      24.249   4.424  50.399  1.00  0.00     0.006 A 
ATOM      4  C   UNL     1      23.574   4.684  51.581  1.00  0.00    -0.027 A 
ATOM      5  C   UNL     1      22.234   5.406  51.566  1.00  0.00     0.046 C 
ATOM      6  C   UNL     1      24.153   4.237  52.767  1.00  0.00     0.045 A 
ATOM      7  C   UNL     1      25.396   3.592  52.747  1.00  0.00     0.040 A 
ENDROOT
BRANCH   1   8
ATOM      8  C   UNL     1      27.340   2.583  51.685  1.00  0.00     0.255 C 
ATOM      9  O   UNL     1      28.202   2.855  50.886  1.00  0.00    -0.269 OA
ATOM     10  N   UNL     1      27.464   1.819  52.781  1.00  0.00    -0.322 N 
ATOM     11  H   UNL     1      26.670   1.809  53.436  1.00  0.00     0.170 HD
BRANCH  10  12
ATOM     12  C   UNL     1      28.566   1.040  53.112  1.00  0.00     0.044 A 
ATOM     13  C   UNL     1      29.854   1.351  52.610  1.00  0.00     0.052 A 
ATOM     14  C   UNL     1      28.407  -0.148  53.858  1.00  0.00     0.039 A 
ATOM     15  C   UNL     1      30.969   0.579  52.945  1.00  0.00     0.049 A 
ATOM     16  C   UNL     1      29.548  -0.920  54.218  1.00  0.00     0.060 A 
ATOM     17  C   UNL     1      30.804  -0.561  53.725  1.00  0.00     0.039 A 
BRANCH  15  18
ATOM     18  N   UNL     1      32.256   0.903  52.488  1.00  0.00    -0.306 N 
ATOM     19  C   UNL     1      32.906   0.477  51.331  1.00  0.00     0.116 A 
ATOM     20  C   UNL     1      33.175   1.633  53.130  1.00  0.00     0.204 A 
ATOM     21  C   UNL     1      34.162   0.975  51.346  1.00  0.00     0.056 A 
ATOM     22  N   UNL     1      34.300   1.722  52.464  1.00  0.00    -0.242 NA
ATOM     23  C   UNL     1      35.241   0.806  50.303  1.00  0.00     0.068 C 
ENDBRANCH  15  18
BRANCH  16  24
ATOM     24  C   UNL     1      29.357  -2.140  55.059  1.00  0.00     0.416 C 
ATOM     25  F   UNL     1      28.736  -3.166  54.443  1.00  0.00    -0.166 F 
ATOM     26  F   UNL     1      30.525  -2.682  55.385  1.00  0.00    -0.166 F 
ATOM     27  F   UNL     1      28.580  -1.904  56.136  1.00  0.00    -0.166 F 
ENDBRANCH  16  24
ENDBRANCH  10  12
ENDBRANCH   1   8
BRANCH   6  28
ATOM     28  N   UNL     1      23.573   4.629  53.981  1.00  0.00    -0.324 N 
ATOM     29  H   UNL     1      22.978   3.974  54.507  1.00  0.00     0.170 HD
BRANCH  28  30
ATOM     30  C   UNL     1      23.809   5.915  54.471  1.00  0.00     0.227 A 
ATOM     31  N   UNL     1      24.818   6.350  55.215  1.00  0.00    -0.221 NA
ATOM     32  N   UNL     1      22.751   6.691  54.119  1.00  0.00    -0.213 NA
ATOM     33  C   UNL     1      24.779   7.643  55.591  1.00  0.00     0.117 A 
ATOM     34  C   UNL     1      22.742   7.960  54.543  1.00  0.00     0.077 A 
ATOM     35  C   UNL     1      23.754   8.454  55.288  1.00  0.00     0.049 A 
BRANCH  34  36
ATOM     36  C   UNL     1      21.581   8.776  54.102  1.00  0.00     0.019 A 
ATOM     37  C   UNL     1      20.260   8.360  54.333  1.00  0.00     0.013 A 
ATOM     38  C   UNL     1      21.779   9.993  53.421  1.00  0.00     0.121 A 
ATOM     39  C   UNL     1      19.214   9.152  53.876  1.00  0.00     0.021 A 
ATOM     40  N   UNL     1      20.775  10.756  52.971  1.00  0.00    -0.264 NA
ATOM     41  C   UNL     1      19.522  10.347  53.228  1.00  0.00     0.111 A 
ENDBRANCH  34  36
ENDBRANCH  28  30
ENDBRANCH   6  28
TORSDOF 7
ENDMDL
MODEL 13
REMARK VINA RESULT:   -11.071      2.798      4.513
REMARK INTER + INTRA:         -14.368
REMARK INTER:                 -13.159
REMARK INTRA:                  -1.209
REMARK CONF_INDEPENDENT:        2.088
REMARK UNBOUND:                -1.209
REMARK SMILES Cc1cn(-c2cc(NC(=O)c3ccc(C)c(Nc4nccc(-c5cccnc5)n4)c3)cc(C(F)(F)F)c2)cn1
REMARK SMILES IDX 11 1 12 2 13 3 14 4 15 5 16 6 30 7 9 8 10 9 8 10 7 12 6 13
REMARK SMILES IDX 31 14 5 15 32 16 37 17 4 18 3 19 38 20 2 21 39 22 1 23 33 24
REMARK SMILES IDX 34 25 35 26 36 27 17 28 18 30 19 31 29 32 20 33 22 34 21 35
REMARK SMILES IDX 23 36 24 37 28 38 25 39 27 40 26 41
REMARK H PARENT 8 11 17 29
ROOT
ATOM      1  C   UNL     1      29.621   1.320  52.722  1.00  0.00     0.042 A 
ATOM      2  C   UNL     1      30.275   1.193  53.957  1.00  0.00     0.014 A 
ATOM      3  C   UNL     1      31.632   0.874  54.031  1.00  0.00     0.006 A 
ATOM      4  C   UNL     1      32.367   0.589  52.891  1.00  0.00    -0.027 A 
ATOM      5  C   UNL     1      33.844   0.235  52.988  1.00  0.00     0.046 C 
ATOM      6  C   UNL     1      31.697   0.611  51.669  1.00  0.00     0.045 A 
ATOM      7  C   UNL     1      30.341   0.958  51.614  1.00  0.00     0.040 A 
ENDROOT
BRANCH   1   8
ATOM      8  C   UNL     1      28.169   1.527  52.555  1.00  0.00     0.255 C 
ATOM      9  O   UNL     1      27.466   0.655  53.003  1.00  0.00    -0.269 OA
ATOM     10  N   UNL     1      27.788   2.752  52.161  1.00  0.00    -0.322 N 
ATOM     11  H   UNL     1      28.535   3.426  51.943  1.00  0.00     0.170 HD
BRANCH  10  12
ATOM     12  C   UNL     1      26.479   3.193  52.020  1.00  0.00     0.044 A 
ATOM     13  C   UNL     1      25.708   2.832  50.886  1.00  0.00     0.052 A 
ATOM     14  C   UNL     1      25.926   4.108  52.942  1.00  0.00     0.039 A 
ATOM     15  C   UNL     1      24.387   3.263  50.740  1.00  0.00     0.049 A 
ATOM     16  C   UNL     1      24.572   4.528  52.803  1.00  0.00     0.060 A 
ATOM     17  C   UNL     1      23.838   4.124  51.685  1.00  0.00     0.039 A 
BRANCH  15  18
ATOM     18  N   UNL     1      23.602   2.877  49.643  1.00  0.00    -0.306 N 
ATOM     19  C   UNL     1      22.920   1.680  49.431  1.00  0.00     0.116 A 
ATOM     20  C   UNL     1      23.419   3.563  48.508  1.00  0.00     0.204 A 
ATOM     21  C   UNL     1      22.371   1.720  48.198  1.00  0.00     0.056 A 
ATOM     22  N   UNL     1      22.667   2.919  47.649  1.00  0.00    -0.242 NA
ATOM     23  C   UNL     1      21.523   0.668  47.524  1.00  0.00     0.068 C 
ENDBRANCH  15  18
BRANCH  16  24
ATOM     24  C   UNL     1      23.994   5.450  53.827  1.00  0.00     0.416 C 
ATOM     25  F   UNL     1      22.740   5.150  54.219  1.00  0.00    -0.166 F 
ATOM     26  F   UNL     1      24.665   5.374  54.970  1.00  0.00    -0.166 F 
ATOM     27  F   UNL     1      23.887   6.716  53.374  1.00  0.00    -0.166 F 
ENDBRANCH  16  24
ENDBRANCH  10  12
ENDBRANCH   1   8
BRANCH   6  28
ATOM     28  N   UNL     1      32.450   0.487  50.494  1.00  0.00    -0.324 N 
ATOM     29  H   UNL     1      32.614   1.307  49.893  1.00  0.00     0.170 HD
BRANCH  28  30
ATOM     30  C   UNL     1      32.976  -0.758  50.144  1.00  0.00     0.227 A 
ATOM     31  N   UNL     1      32.364  -1.934  50.088  1.00  0.00    -0.221 NA
ATOM     32  N   UNL     1      34.307  -0.597  49.930  1.00  0.00    -0.213 NA
ATOM     33  C   UNL     1      33.124  -2.997  49.760  1.00  0.00     0.117 A 
ATOM     34  C   UNL     1      35.027  -1.687  49.639  1.00  0.00     0.077 A 
ATOM     35  C   UNL     1      34.447  -2.903  49.552  1.00  0.00     0.049 A 
BRANCH  34  36
ATOM     36  C   UNL     1      36.471  -1.452  49.379  1.00  0.00     0.019 A 
ATOM     37  C   UNL     1      37.217  -2.305  48.550  1.00  0.00     0.013 A 
ATOM     38  C   UNL     1      37.138  -0.365  49.977  1.00  0.00     0.121 A 
ATOM     39  C   UNL     1      38.570  -2.052  48.363  1.00  0.00     0.021 A 
ATOM     40  N   UNL     1      38.444  -0.120  49.807  1.00  0.00    -0.264 NA
ATOM     41  C   UNL     1      39.127  -0.937  48.988  1.00  0.00     0.111 A 
ENDBRANCH  34  36
ENDBRANCH  28  30
ENDBRANCH   6  28
TORSDOF 7
ENDMDL
MODEL 14
REMARK VINA RESULT:   -10.960      4.555      7.507
REMARK INTER + INTRA:         -13.857
REMARK INTER:                 -13.048
REMARK INTRA:                  -0.809
REMARK CONF_INDEPENDENT:        2.088
REMARK UNBOUND:                -0.809
REMARK SMILES Cc1cn(-c2cc(NC(=O)c3ccc(C)c(Nc4nccc(-c5cccnc5)n4)c3)cc(C(F)(F)F)c2)cn1
REMARK SMILES IDX 11 1 12 2 13 3 14 4 15 5 16 6 30 7 9 8 10 9 8 10 7 12 6 13
REMARK SMILES IDX 31 14 5 15 32 16 37 17 4 18 3 19 38 20 2 21 39 22 1 23 33 24
REMARK SMILES IDX 34 25 35 26 36 27 17 28 18 30 19 31 29 32 20 33 22 34 21 35
REMARK SMILES IDX 23 36 24 37 28 38 25 39 27 40 26 41
REMARK H PARENT 8 11 17 29
ROOT
ATOM      1  C   UNL     1      23.017   5.857  52.740  1.00  0.00     0.042 A 
ATOM      2  C   UNL     1      22.691   5.550  51.410  1.00  0.00     0.014 A 
ATOM      3  C   UNL     1      23.277   4.470  50.749  1.00  0.00     0.006 A 
ATOM      4  C   UNL     1      24.264   3.708  51.353  1.00  0.00    -0.027 A 
ATOM      5  C   UNL     1      24.900   2.537  50.617  1.00  0.00     0.046 C 
ATOM      6  C   UNL     1      24.666   4.071  52.637  1.00  0.00     0.045 A 
ATOM      7  C   UNL     1      24.049   5.144  53.292  1.00  0.00     0.040 A 
ENDROOT
BRANCH   1   8
ATOM      8  C   UNL     1      22.544   7.049  53.470  1.00  0.00     0.255 C 
ATOM      9  O   UNL     1      23.369   7.914  53.641  1.00  0.00    -0.269 OA
ATOM     10  N   UNL     1      21.217   7.153  53.638  1.00  0.00    -0.322 N 
ATOM     11  H   UNL     1      20.641   6.367  53.306  1.00  0.00     0.170 HD
BRANCH  10  12
ATOM     12  C   UNL     1      20.549   8.224  54.218  1.00  0.00     0.044 A 
ATOM     13  C   UNL     1      19.538   8.920  53.511  1.00  0.00     0.052 A 
ATOM     14  C   UNL     1      20.946   8.719  55.480  1.00  0.00     0.039 A 
ATOM     15  C   UNL     1      18.854   9.993  54.090  1.00  0.00     0.049 A 
ATOM     16  C   UNL     1      20.233   9.797  56.078  1.00  0.00     0.060 A 
ATOM     17  C   UNL     1      19.222  10.436  55.357  1.00  0.00     0.039 A 
BRANCH  15  18
ATOM     18  N   UNL     1      17.823  10.662  53.414  1.00  0.00    -0.306 N 
ATOM     19  C   UNL     1      16.658  11.225  53.932  1.00  0.00     0.116 A 
ATOM     20  C   UNL     1      17.702  10.819  52.091  1.00  0.00     0.204 A 
ATOM     21  C   UNL     1      15.917  11.686  52.900  1.00  0.00     0.056 A 
ATOM     22  N   UNL     1      16.603  11.451  51.759  1.00  0.00    -0.242 NA
ATOM     23  C   UNL     1      14.584  12.393  52.956  1.00  0.00     0.068 C 
ENDBRANCH  15  18
BRANCH  16  24
ATOM     24  C   UNL     1      20.635  10.261  57.440  1.00  0.00     0.416 C 
ATOM     25  F   UNL     1      20.936   9.278  58.311  1.00  0.00    -0.166 F 
ATOM     26  F   UNL     1      21.773  10.945  57.394  1.00  0.00    -0.166 F 
ATOM     27  F   UNL     1      19.650  10.941  58.062  1.00  0.00    -0.166 F 
ENDBRANCH  16  24
ENDBRANCH  10  12
ENDBRANCH   1   8
BRANCH   6  28
ATOM     28  N   UNL     1      25.542   3.223  53.327  1.00  0.00    -0.324 N 
ATOM     29  H   UNL     1      25.292   2.868  54.261  1.00  0.00     0.170 HD
BRANCH  28  30
ATOM     30  C   UNL     1      26.755   2.861  52.738  1.00  0.00     0.227 A 
ATOM     31  N   UNL     1      27.387   3.429  51.718  1.00  0.00    -0.221 NA
ATOM     32  N   UNL     1      27.187   1.727  53.347  1.00  0.00    -0.213 NA
ATOM     33  C   UNL     1      28.533   2.847  51.317  1.00  0.00     0.117 A 
ATOM     34  C   UNL     1      28.314   1.167  52.892  1.00  0.00     0.077 A 
ATOM     35  C   UNL     1      29.003   1.717  51.869  1.00  0.00     0.049 A 
BRANCH  34  36
ATOM     36  C   UNL     1      28.762  -0.052  53.614  1.00  0.00     0.019 A 
ATOM     37  C   UNL     1      28.072  -0.538  54.736  1.00  0.00     0.013 A 
ATOM     38  C   UNL     1      29.913  -0.748  53.195  1.00  0.00     0.121 A 
ATOM     39  C   UNL     1      28.552  -1.668  55.386  1.00  0.00     0.021 A 
ATOM     40  N   UNL     1      30.385  -1.833  53.823  1.00  0.00    -0.264 NA
ATOM     41  C   UNL     1      29.691  -2.291  54.878  1.00  0.00     0.111 A 
ENDBRANCH  34  36
ENDBRANCH  28  30
ENDBRANCH   6  28
TORSDOF 7
ENDMDL
MODEL 15
REMARK VINA RESULT:   -10.874      8.404     15.228
REMARK INTER + INTRA:         -14.268
REMARK INTER:                 -12.963
REMARK INTRA:                  -1.306
REMARK CONF_INDEPENDENT:        2.088
REMARK UNBOUND:                -1.306
REMARK SMILES Cc1cn(-c2cc(NC(=O)c3ccc(C)c(Nc4nccc(-c5cccnc5)n4)c3)cc(C(F)(F)F)c2)cn1
REMARK SMILES IDX 11 1 12 2 13 3 14 4 15 5 16 6 30 7 9 8 10 9 8 10 7 12 6 13
REMARK SMILES IDX 31 14 5 15 32 16 37 17 4 18 3 19 38 20 2 21 39 22 1 23 33 24
REMARK SMILES IDX 34 25 35 26 36 27 17 28 18 30 19 31 29 32 20 33 22 34 21 35
REMARK SMILES IDX 23 36 24 37 28 38 25 39 27 40 26 41
REMARK H PARENT 8 11 17 29
ROOT
ATOM      1  C   UNL     1      36.007  -1.693  49.318  1.00  0.00     0.042 A 
ATOM      2  C   UNL     1      35.214  -2.844  49.203  1.00  0.00     0.014 A 
ATOM      3  C   UNL     1      33.838  -2.806  49.434  1.00  0.00     0.006 A 
ATOM      4  C   UNL     1      33.215  -1.646  49.868  1.00  0.00    -0.027 A 
ATOM      5  C   UNL     1      31.715  -1.621  50.124  1.00  0.00     0.046 C 
ATOM      6  C   UNL     1      34.015  -0.525  50.085  1.00  0.00     0.045 A 
ATOM      7  C   UNL     1      35.390  -0.578  49.823  1.00  0.00     0.040 A 
ENDROOT
BRANCH   1   8
ATOM      8  C   UNL     1      37.480  -1.670  49.217  1.00  0.00     0.255 C 
ATOM      9  O   UNL     1      38.062  -1.303  50.209  1.00  0.00    -0.269 OA
ATOM     10  N   UNL     1      38.009  -2.285  48.149  1.00  0.00    -0.322 N 
ATOM     11  H   UNL     1      37.351  -2.665  47.454  1.00  0.00     0.170 HD
BRANCH  10  12
ATOM     12  C   UNL     1      39.364  -2.457  47.895  1.00  0.00     0.044 A 
ATOM     13  C   UNL     1      39.934  -2.028  46.671  1.00  0.00     0.052 A 
ATOM     14  C   UNL     1      40.179  -3.172  48.799  1.00  0.00     0.039 A 
ATOM     15  C   UNL     1      41.298  -2.187  46.410  1.00  0.00     0.049 A 
ATOM     16  C   UNL     1      41.572  -3.314  48.542  1.00  0.00     0.060 A 
ATOM     17  C   UNL     1      42.100  -2.848  47.335  1.00  0.00     0.039 A 
BRANCH  15  18
ATOM     18  N   UNL     1      41.880  -1.728  45.219  1.00  0.00    -0.306 N 
ATOM     19  C   UNL     1      42.150  -0.419  44.824  1.00  0.00     0.116 A 
ATOM     20  C   UNL     1      42.219  -2.467  44.156  1.00  0.00     0.204 A 
ATOM     21  C   UNL     1      42.635  -0.449  43.564  1.00  0.00     0.056 A 
ATOM     22  N   UNL     1      42.701  -1.742  43.175  1.00  0.00    -0.242 NA
ATOM     23  C   UNL     1      43.088   0.713  42.715  1.00  0.00     0.068 C 
ENDBRANCH  15  18
BRANCH  16  24
ATOM     24  C   UNL     1      42.423  -4.023  49.545  1.00  0.00     0.416 C 
ATOM     25  F   UNL     1      41.750  -4.810  50.408  1.00  0.00    -0.166 F 
ATOM     26  F   UNL     1      43.234  -4.892  48.954  1.00  0.00    -0.166 F 
ATOM     27  F   UNL     1      43.085  -3.167  50.352  1.00  0.00    -0.166 F 
ENDBRANCH  16  24
ENDBRANCH  10  12
ENDBRANCH   1   8
BRANCH   6  28
ATOM     28  N   UNL     1      33.389   0.696  50.365  1.00  0.00    -0.324 N 
ATOM     29  H   UNL     1      33.069   1.304  49.597  1.00  0.00     0.170 HD
BRANCH  28  30
ATOM     30  C   UNL     1      33.201   1.083  51.693  1.00  0.00     0.227 A 
ATOM     31  N   UNL     1      33.893   1.958  52.411  1.00  0.00    -0.221 NA
ATOM     32  N   UNL     1      32.191   0.331  52.202  1.00  0.00    -0.213 NA
ATOM     33  C   UNL     1      33.525   2.113  53.697  1.00  0.00     0.117 A 
ATOM     34  C   UNL     1      31.882   0.498  53.493  1.00  0.00     0.077 A 
ATOM     35  C   UNL     1      32.545   1.389  54.261  1.00  0.00     0.049 A 
BRANCH  34  36
ATOM     36  C   UNL     1      30.747  -0.322  53.993  1.00  0.00     0.019 A 
ATOM     37  C   UNL     1      29.663   0.258  54.671  1.00  0.00     0.013 A 
ATOM     38  C   UNL     1      30.738  -1.719  53.810  1.00  0.00     0.121 A 
ATOM     39  C   UNL     1      28.643  -0.560  55.138  1.00  0.00     0.021 A 
ATOM     40  N   UNL     1      29.761  -2.514  54.264  1.00  0.00    -0.264 NA
ATOM     41  C   UNL     1      28.725  -1.930  54.887  1.00  0.00     0.111 A 
ENDBRANCH  34  36
ENDBRANCH  28  30
ENDBRANCH   6  28
TORSDOF 7
ENDMDL
MODEL 16
REMARK VINA RESULT:   -10.870      4.082     11.250
REMARK INTER + INTRA:         -14.211
REMARK INTER:                 -12.958
REMARK INTRA:                  -1.253
REMARK CONF_INDEPENDENT:        2.088
REMARK UNBOUND:                -1.253
REMARK SMILES Cc1cn(-c2cc(NC(=O)c3ccc(C)c(Nc4nccc(-c5cccnc5)n4)c3)cc(C(F)(F)F)c2)cn1
REMARK SMILES IDX 11 1 12 2 13 3 14 4 15 5 16 6 30 7 9 8 10 9 8 10 7 12 6 13
REMARK SMILES IDX 31 14 5 15 32 16 37 17 4 18 3 19 38 20 2 21 39 22 1 23 33 24
REMARK SMILES IDX 34 25 35 26 36 27 17 28 18 30 19 31 29 32 20 33 22 34 21 35
REMARK SMILES IDX 23 36 24 37 28 38 25 39 27 40 26 41
REMARK H PARENT 8 11 17 29
ROOT
ATOM      1  C   UNL     1      25.572   3.783  51.898  1.00  0.00     0.042 A 
ATOM      2  C   UNL     1      24.821   3.960  50.726  1.00  0.00     0.014 A 
ATOM      3  C   UNL     1      23.502   4.415  50.771  1.00  0.00     0.006 A 
ATOM      4  C   UNL     1      22.856   4.630  51.978  1.00  0.00    -0.027 A 
ATOM      5  C   UNL     1      21.415   5.119  52.011  1.00  0.00     0.046 C 
ATOM      6  C   UNL     1      23.565   4.356  53.147  1.00  0.00     0.045 A 
ATOM      7  C   UNL     1      24.895   3.924  53.081  1.00  0.00     0.040 A 
ENDROOT
BRANCH   1   8
ATOM      8  C   UNL     1      26.922   3.188  51.951  1.00  0.00     0.255 C 
ATOM      9  O   UNL     1      27.452   3.007  50.882  1.00  0.00    -0.269 OA
ATOM     10  N   UNL     1      27.505   3.151  53.159  1.00  0.00    -0.322 N 
ATOM     11  H   UNL     1      26.943   3.476  53.959  1.00  0.00     0.170 HD
BRANCH  10  12
ATOM     12  C   UNL     1      28.796   2.715  53.430  1.00  0.00     0.044 A 
ATOM     13  C   UNL     1      29.401   1.704  52.642  1.00  0.00     0.052 A 
ATOM     14  C   UNL     1      29.487   3.181  54.569  1.00  0.00     0.039 A 
ATOM     15  C   UNL     1      30.703   1.265  52.901  1.00  0.00     0.049 A 
ATOM     16  C   UNL     1      30.822   2.749  54.817  1.00  0.00     0.060 A 
ATOM     17  C   UNL     1      31.392   1.773  53.997  1.00  0.00     0.039 A 
BRANCH  15  18
ATOM     18  N   UNL     1      31.327   0.296  52.101  1.00  0.00    -0.306 N 
ATOM     19  C   UNL     1      32.685   0.011  51.969  1.00  0.00     0.116 A 
ATOM     20  C   UNL     1      30.736  -0.512  51.213  1.00  0.00     0.204 A 
ATOM     21  C   UNL     1      32.826  -0.943  51.024  1.00  0.00     0.056 A 
ATOM     22  N   UNL     1      31.593  -1.280  50.586  1.00  0.00    -0.242 NA
ATOM     23  C   UNL     1      34.102  -1.592  50.542  1.00  0.00     0.068 C 
ENDBRANCH  15  18
BRANCH  16  24
ATOM     24  C   UNL     1      31.552   3.306  55.996  1.00  0.00     0.416 C 
ATOM     25  F   UNL     1      31.649   2.472  57.051  1.00  0.00    -0.166 F 
ATOM     26  F   UNL     1      32.828   3.530  55.704  1.00  0.00    -0.166 F 
ATOM     27  F   UNL     1      30.943   4.393  56.511  1.00  0.00    -0.166 F 
ENDBRANCH  16  24
ENDBRANCH  10  12
ENDBRANCH   1   8
BRANCH   6  28
ATOM     28  N   UNL     1      22.993   4.719  54.373  1.00  0.00    -0.324 N 
ATOM     29  H   UNL     1      22.423   4.042  54.901  1.00  0.00     0.170 HD
BRANCH  28  30
ATOM     30  C   UNL     1      23.200   6.005  54.874  1.00  0.00     0.227 A 
ATOM     31  N   UNL     1      22.853   7.171  54.344  1.00  0.00    -0.221 NA
ATOM     32  N   UNL     1      23.922   5.890  56.018  1.00  0.00    -0.213 NA
ATOM     33  C   UNL     1      23.218   8.277  55.021  1.00  0.00     0.117 A 
ATOM     34  C   UNL     1      24.289   7.017  56.639  1.00  0.00     0.077 A 
ATOM     35  C   UNL     1      23.945   8.228  56.149  1.00  0.00     0.049 A 
BRANCH  34  36
ATOM     36  C   UNL     1      25.047   6.837  57.904  1.00  0.00     0.019 A 
ATOM     37  C   UNL     1      24.399   6.783  59.149  1.00  0.00     0.013 A 
ATOM     38  C   UNL     1      26.452   6.729  57.888  1.00  0.00     0.121 A 
ATOM     39  C   UNL     1      25.161   6.638  60.301  1.00  0.00     0.021 A 
ATOM     40  N   UNL     1      27.192   6.597  58.996  1.00  0.00    -0.264 NA
ATOM     41  C   UNL     1      26.544   6.523  60.170  1.00  0.00     0.111 A 
ENDBRANCH  34  36
ENDBRANCH  28  30
ENDBRANCH   6  28
TORSDOF 7
ENDMDL
MODEL 17
REMARK VINA RESULT:   -10.869      3.670     12.046
REMARK INTER + INTRA:         -14.299
REMARK INTER:                 -12.957
REMARK INTRA:                  -1.341
REMARK CONF_INDEPENDENT:        2.088
REMARK UNBOUND:                -1.341
REMARK SMILES Cc1cn(-c2cc(NC(=O)c3ccc(C)c(Nc4nccc(-c5cccnc5)n4)c3)cc(C(F)(F)F)c2)cn1
REMARK SMILES IDX 11 1 12 2 13 3 14 4 15 5 16 6 30 7 9 8 10 9 8 10 7 12 6 13
REMARK SMILES IDX 31 14 5 15 32 16 37 17 4 18 3 19 38 20 2 21 39 22 1 23 33 24
REMARK SMILES IDX 34 25 35 26 36 27 17 28 18 30 19 31 29 32 20 33 22 34 21 35
REMARK SMILES IDX 23 36 24 37 28 38 25 39 27 40 26 41
REMARK H PARENT 8 11 17 29
ROOT
ATOM      1  C   UNL     1      25.735   3.611  51.927  1.00  0.00     0.042 A 
ATOM      2  C   UNL     1      24.965   3.706  50.759  1.00  0.00     0.014 A 
ATOM      3  C   UNL     1      23.627   4.102  50.800  1.00  0.00     0.006 A 
ATOM      4  C   UNL     1      22.985   4.337  52.005  1.00  0.00    -0.027 A 
ATOM      5  C   UNL     1      21.523   4.761  52.036  1.00  0.00     0.046 C 
ATOM      6  C   UNL     1      23.716   4.144  53.176  1.00  0.00     0.045 A 
ATOM      7  C   UNL     1      25.065   3.770  53.112  1.00  0.00     0.040 A 
ENDROOT
BRANCH   1   8
ATOM      8  C   UNL     1      27.112   3.081  51.989  1.00  0.00     0.255 C 
ATOM      9  O   UNL     1      27.674   2.975  50.926  1.00  0.00    -0.269 OA
ATOM     10  N   UNL     1      27.667   3.016  53.208  1.00  0.00    -0.322 N 
ATOM     11  H   UNL     1      27.071   3.276  54.007  1.00  0.00     0.170 HD
BRANCH  10  12
ATOM     12  C   UNL     1      28.971   2.631  53.492  1.00  0.00     0.044 A 
ATOM     13  C   UNL     1      29.626   1.650  52.707  1.00  0.00     0.052 A 
ATOM     14  C   UNL     1      29.630   3.119  54.641  1.00  0.00     0.039 A 
ATOM     15  C   UNL     1      30.941   1.263  52.978  1.00  0.00     0.049 A 
ATOM     16  C   UNL     1      30.977   2.740  54.903  1.00  0.00     0.060 A 
ATOM     17  C   UNL     1      31.597   1.792  54.086  1.00  0.00     0.039 A 
BRANCH  15  18
ATOM     18  N   UNL     1      31.613   0.324  52.182  1.00  0.00    -0.306 N 
ATOM     19  C   UNL     1      31.215  -0.246  50.974  1.00  0.00     0.116 A 
ATOM     20  C   UNL     1      32.761  -0.300  52.474  1.00  0.00     0.204 A 
ATOM     21  C   UNL     1      32.139  -1.163  50.614  1.00  0.00     0.056 A 
ATOM     22  N   UNL     1      33.114  -1.158  51.549  1.00  0.00    -0.242 NA
ATOM     23  C   UNL     1      32.157  -2.026  49.375  1.00  0.00     0.068 C 
ENDBRANCH  15  18
BRANCH  16  24
ATOM     24  C   UNL     1      31.671   3.319  56.094  1.00  0.00     0.416 C 
ATOM     25  F   UNL     1      31.081   4.409  56.622  1.00  0.00    -0.166 F 
ATOM     26  F   UNL     1      31.650   2.472  57.117  1.00  0.00    -0.166 F 
ATOM     27  F   UNL     1      32.917   3.746  55.804  1.00  0.00    -0.166 F 
ENDBRANCH  16  24
ENDBRANCH  10  12
ENDBRANCH   1   8
BRANCH   6  28
ATOM     28  N   UNL     1      23.141   4.530  54.393  1.00  0.00    -0.324 N 
ATOM     29  H   UNL     1      22.560   3.867  54.926  1.00  0.00     0.170 HD
BRANCH  28  30
ATOM     30  C   UNL     1      23.361   5.821  54.878  1.00  0.00     0.227 A 
ATOM     31  N   UNL     1      24.295   6.246  55.720  1.00  0.00    -0.221 NA
ATOM     32  N   UNL     1      22.373   6.617  54.394  1.00  0.00    -0.213 NA
ATOM     33  C   UNL     1      24.255   7.548  56.061  1.00  0.00     0.117 A 
ATOM     34  C   UNL     1      22.356   7.896  54.787  1.00  0.00     0.077 A 
ATOM     35  C   UNL     1      23.295   8.380  55.628  1.00  0.00     0.049 A 
BRANCH  34  36
ATOM     36  C   UNL     1      21.276   8.733  54.202  1.00  0.00     0.019 A 
ATOM     37  C   UNL     1      19.942   8.297  54.172  1.00  0.00     0.013 A 
ATOM     38  C   UNL     1      21.571   9.992  53.643  1.00  0.00     0.121 A 
ATOM     39  C   UNL     1      18.979   9.111  53.590  1.00  0.00     0.021 A 
ATOM     40  N   UNL     1      20.648  10.778  53.073  1.00  0.00    -0.264 NA
ATOM     41  C   UNL     1      19.376  10.347  53.081  1.00  0.00     0.111 A 
ENDBRANCH  34  36
ENDBRANCH  28  30
ENDBRANCH   6  28
TORSDOF 7
ENDMDL
MODEL 18
REMARK VINA RESULT:   -10.794      4.719     13.531
REMARK INTER + INTRA:         -14.234
REMARK INTER:                 -12.882
REMARK INTRA:                  -1.352
REMARK CONF_INDEPENDENT:        2.088
REMARK UNBOUND:                -1.352
REMARK SMILES Cc1cn(-c2cc(NC(=O)c3ccc(C)c(Nc4nccc(-c5cccnc5)n4)c3)cc(C(F)(F)F)c2)cn1
REMARK SMILES IDX 11 1 12 2 13 3 14 4 15 5 16 6 30 7 9 8 10 9 8 10 7 12 6 13
REMARK SMILES IDX 31 14 5 15 32 16 37 17 4 18 3 19 38 20 2 21 39 22 1 23 33 24
REMARK SMILES IDX 34 25 35 26 36 27 17 28 18 30 19 31 29 32 20 33 22 34 21 35
REMARK SMILES IDX 23 36 24 37 28 38 25 39 27 40 26 41
REMARK H PARENT 8 11 17 29
ROOT
ATOM      1  C   UNL     1      21.074   7.287  54.263  1.00  0.00     0.042 A 
ATOM      2  C   UNL     1      20.921   7.431  55.650  1.00  0.00     0.014 A 
ATOM      3  C   UNL     1      20.188   8.486  56.195  1.00  0.00     0.006 A 
ATOM      4  C   UNL     1      19.651   9.479  55.391  1.00  0.00    -0.027 A 
ATOM      5  C   UNL     1      18.860  10.628  56.000  1.00  0.00     0.046 C 
ATOM      6  C   UNL     1      19.888   9.398  54.020  1.00  0.00     0.045 A 
ATOM      7  C   UNL     1      20.605   8.318  53.490  1.00  0.00     0.040 A 
ENDROOT
BRANCH   1   8
ATOM      8  C   UNL     1      21.933   6.281  53.609  1.00  0.00     0.255 C 
ATOM      9  O   UNL     1      21.897   5.175  54.091  1.00  0.00    -0.269 OA
ATOM     10  N   UNL     1      22.454   6.629  52.422  1.00  0.00    -0.322 N 
ATOM     11  H   UNL     1      22.270   7.587  52.094  1.00  0.00     0.170 HD
BRANCH  10  12
ATOM     12  C   UNL     1      23.219   5.815  51.596  1.00  0.00     0.044 A 
ATOM     13  C   UNL     1      24.302   5.064  52.116  1.00  0.00     0.052 A 
ATOM     14  C   UNL     1      23.009   5.810  50.200  1.00  0.00     0.039 A 
ATOM     15  C   UNL     1      25.071   4.235  51.295  1.00  0.00     0.049 A 
ATOM     16  C   UNL     1      23.779   4.947  49.369  1.00  0.00     0.060 A 
ATOM     17  C   UNL     1      24.819   4.201  49.928  1.00  0.00     0.039 A 
BRANCH  15  18
ATOM     18  N   UNL     1      26.119   3.456  51.808  1.00  0.00    -0.306 N 
ATOM     19  C   UNL     1      26.461   3.212  53.137  1.00  0.00     0.116 A 
ATOM     20  C   UNL     1      27.083   2.847  51.106  1.00  0.00     0.204 A 
ATOM     21  C   UNL     1      27.593   2.476  53.154  1.00  0.00     0.056 A 
ATOM     22  N   UNL     1      27.948   2.230  51.873  1.00  0.00    -0.242 NA
ATOM     23  C   UNL     1      28.340   1.948  54.355  1.00  0.00     0.068 C 
ENDBRANCH  15  18
BRANCH  16  24
ATOM     24  C   UNL     1      23.496   4.917  47.902  1.00  0.00     0.416 C 
ATOM     25  F   UNL     1      24.184   5.816  47.170  1.00  0.00    -0.166 F 
ATOM     26  F   UNL     1      23.887   3.768  47.364  1.00  0.00    -0.166 F 
ATOM     27  F   UNL     1      22.208   5.206  47.622  1.00  0.00    -0.166 F 
ENDBRANCH  16  24
ENDBRANCH  10  12
ENDBRANCH   1   8
BRANCH   6  28
ATOM     28  N   UNL     1      19.222  10.295  53.174  1.00  0.00    -0.324 N 
ATOM     29  H   UNL     1      19.756  10.892  52.527  1.00  0.00     0.170 HD
BRANCH  28  30
ATOM     30  C   UNL     1      17.829  10.373  53.216  1.00  0.00     0.227 A 
ATOM     31  N   UNL     1      17.053  11.448  53.165  1.00  0.00    -0.221 NA
ATOM     32  N   UNL     1      17.351   9.115  53.405  1.00  0.00    -0.213 NA
ATOM     33  C   UNL     1      15.726  11.243  53.271  1.00  0.00     0.117 A 
ATOM     34  C   UNL     1      16.028   8.966  53.536  1.00  0.00     0.077 A 
ATOM     35  C   UNL     1      15.196  10.027  53.473  1.00  0.00     0.049 A 
BRANCH  34  36
ATOM     36  C   UNL     1      15.554   7.567  53.705  1.00  0.00     0.019 A 
ATOM     37  C   UNL     1      14.774   7.184  54.808  1.00  0.00     0.013 A 
ATOM     38  C   UNL     1      15.891   6.578  52.761  1.00  0.00     0.121 A 
ATOM     39  C   UNL     1      14.380   5.857  54.927  1.00  0.00     0.021 A 
ATOM     40  N   UNL     1      15.521   5.296  52.875  1.00  0.00    -0.264 NA
ATOM     41  C   UNL     1      14.754   4.962  53.925  1.00  0.00     0.111 A 
ENDBRANCH  34  36
ENDBRANCH  28  30
ENDBRANCH   6  28
TORSDOF 7
ENDMDL
MODEL 19
REMARK VINA RESULT:   -10.581      8.275     14.910
REMARK INTER + INTRA:         -14.025
REMARK INTER:                 -12.669
REMARK INTRA:                  -1.356
REMARK CONF_INDEPENDENT:        2.088
REMARK UNBOUND:                -1.356
REMARK SMILES Cc1cn(-c2cc(NC(=O)c3ccc(C)c(Nc4nccc(-c5cccnc5)n4)c3)cc(C(F)(F)F)c2)cn1
REMARK SMILES IDX 11 1 12 2 13 3 14 4 15 5 16 6 30 7 9 8 10 9 8 10 7 12 6 13
REMARK SMILES IDX 31 14 5 15 32 16 37 17 4 18 3 19 38 20 2 21 39 22 1 23 33 24
REMARK SMILES IDX 34 25 35 26 36 27 17 28 18 30 19 31 29 32 20 33 22 34 21 35
REMARK SMILES IDX 23 36 24 37 28 38 25 39 27 40 26 41
REMARK H PARENT 8 11 17 29
ROOT
ATOM      1  C   UNL     1      36.148  -1.585  49.558  1.00  0.00     0.042 A 
ATOM      2  C   UNL     1      35.457  -2.780  49.312  1.00  0.00     0.014 A 
ATOM      3  C   UNL     1      34.065  -2.843  49.387  1.00  0.00     0.006 A 
ATOM      4  C   UNL     1      33.316  -1.749  49.788  1.00  0.00    -0.027 A 
ATOM      5  C   UNL     1      31.799  -1.834  49.873  1.00  0.00     0.046 C 
ATOM      6  C   UNL     1      34.005  -0.587  50.135  1.00  0.00     0.045 A 
ATOM      7  C   UNL     1      35.401  -0.537  50.029  1.00  0.00     0.040 A 
ENDROOT
BRANCH   1   8
ATOM      8  C   UNL     1      37.618  -1.459  49.625  1.00  0.00     0.255 C 
ATOM      9  O   UNL     1      38.034  -0.675  50.443  1.00  0.00    -0.269 OA
ATOM     10  N   UNL     1      38.322  -2.391  48.966  1.00  0.00    -0.322 N 
ATOM     11  H   UNL     1      37.788  -3.077  48.414  1.00  0.00     0.170 HD
BRANCH  10  12
ATOM     12  C   UNL     1      39.706  -2.515  48.960  1.00  0.00     0.044 A 
ATOM     13  C   UNL     1      40.441  -2.511  50.171  1.00  0.00     0.052 A 
ATOM     14  C   UNL     1      40.420  -2.527  47.742  1.00  0.00     0.039 A 
ATOM     15  C   UNL     1      41.833  -2.645  50.176  1.00  0.00     0.049 A 
ATOM     16  C   UNL     1      41.835  -2.687  47.749  1.00  0.00     0.060 A 
ATOM     17  C   UNL     1      42.519  -2.708  48.967  1.00  0.00     0.039 A 
BRANCH  15  18
ATOM     18  N   UNL     1      42.566  -2.684  51.371  1.00  0.00    -0.306 N 
ATOM     19  C   UNL     1      42.598  -3.678  52.347  1.00  0.00     0.116 A 
ATOM     20  C   UNL     1      43.334  -1.709  51.872  1.00  0.00     0.204 A 
ATOM     21  C   UNL     1      43.377  -3.248  53.363  1.00  0.00     0.056 A 
ATOM     22  N   UNL     1      43.855  -2.028  53.032  1.00  0.00    -0.242 NA
ATOM     23  C   UNL     1      43.731  -3.979  54.636  1.00  0.00     0.068 C 
ENDBRANCH  15  18
BRANCH  16  24
ATOM     24  C   UNL     1      42.560  -2.757  46.445  1.00  0.00     0.416 C 
ATOM     25  F   UNL     1      41.780  -2.995  45.372  1.00  0.00    -0.166 F 
ATOM     26  F   UNL     1      43.102  -1.584  46.136  1.00  0.00    -0.166 F 
ATOM     27  F   UNL     1      43.457  -3.764  46.409  1.00  0.00    -0.166 F 
ENDBRANCH  16  24
ENDBRANCH  10  12
ENDBRANCH   1   8
BRANCH   6  28
ATOM     28  N   UNL     1      33.267   0.576  50.386  1.00  0.00    -0.324 N 
ATOM     29  H   UNL     1      32.873   1.120  49.605  1.00  0.00     0.170 HD
BRANCH  28  30
ATOM     30  C   UNL     1      33.068   0.993  51.704  1.00  0.00     0.227 A 
ATOM     31  N   UNL     1      33.741   1.899  52.401  1.00  0.00    -0.221 NA
ATOM     32  N   UNL     1      32.072   0.234  52.229  1.00  0.00    -0.213 NA
ATOM     33  C   UNL     1      33.366   2.079  53.681  1.00  0.00     0.117 A 
ATOM     34  C   UNL     1      31.756   0.427  53.515  1.00  0.00     0.077 A 
ATOM     35  C   UNL     1      32.400   1.350  54.261  1.00  0.00     0.049 A 
BRANCH  34  36
ATOM     36  C   UNL     1      30.637  -0.403  54.033  1.00  0.00     0.019 A 
ATOM     37  C   UNL     1      29.535   0.173  54.685  1.00  0.00     0.013 A 
ATOM     38  C   UNL     1      30.661  -1.804  53.894  1.00  0.00     0.121 A 
ATOM     39  C   UNL     1      28.530  -0.653  55.171  1.00  0.00     0.021 A 
ATOM     40  N   UNL     1      29.699  -2.607  54.367  1.00  0.00    -0.264 NA
ATOM     41  C   UNL     1      28.645  -2.028  54.964  1.00  0.00     0.111 A 
ENDBRANCH  34  36
ENDBRANCH  28  30
ENDBRANCH   6  28
TORSDOF 7
ENDMDL
MODEL 20
REMARK VINA RESULT:   -10.447      2.722      5.003
REMARK INTER + INTRA:         -14.096
REMARK INTER:                 -12.535
REMARK INTRA:                  -1.561
REMARK CONF_INDEPENDENT:        2.088
REMARK UNBOUND:                -1.561
REMARK SMILES Cc1cn(-c2cc(NC(=O)c3ccc(C)c(Nc4nccc(-c5cccnc5)n4)c3)cc(C(F)(F)F)c2)cn1
REMARK SMILES IDX 11 1 12 2 13 3 14 4 15 5 16 6 30 7 9 8 10 9 8 10 7 12 6 13
REMARK SMILES IDX 31 14 5 15 32 16 37 17 4 18 3 19 38 20 2 21 39 22 1 23 33 24
REMARK SMILES IDX 34 25 35 26 36 27 17 28 18 30 19 31 29 32 20 33 22 34 21 35
REMARK SMILES IDX 23 36 24 37 28 38 25 39 27 40 26 41
REMARK H PARENT 8 11 17 29
ROOT
ATOM      1  C   UNL     1      27.456   1.461  52.894  1.00  0.00     0.042 A 
ATOM      2  C   UNL     1      27.393   0.833  54.147  1.00  0.00     0.014 A 
ATOM      3  C   UNL     1      28.267  -0.200  54.486  1.00  0.00     0.006 A 
ATOM      4  C   UNL     1      29.176  -0.703  53.569  1.00  0.00    -0.027 A 
ATOM      5  C   UNL     1      30.118  -1.836  53.951  1.00  0.00     0.046 C 
ATOM      6  C   UNL     1      29.173  -0.153  52.289  1.00  0.00     0.045 A 
ATOM      7  C   UNL     1      28.305   0.901  51.975  1.00  0.00     0.040 A 
ENDROOT
BRANCH   1   8
ATOM      8  C   UNL     1      26.494   2.469  52.407  1.00  0.00     0.255 C 
ATOM      9  O   UNL     1      26.041   2.265  51.307  1.00  0.00    -0.269 OA
ATOM     10  N   UNL     1      26.043   3.346  53.317  1.00  0.00    -0.322 N 
ATOM     11  H   UNL     1      26.450   3.290  54.261  1.00  0.00     0.170 HD
BRANCH  10  12
ATOM     12  C   UNL     1      25.078   4.322  53.102  1.00  0.00     0.044 A 
ATOM     13  C   UNL     1      24.650   4.645  51.791  1.00  0.00     0.052 A 
ATOM     14  C   UNL     1      24.590   5.097  54.176  1.00  0.00     0.039 A 
ATOM     15  C   UNL     1      23.673   5.618  51.565  1.00  0.00     0.049 A 
ATOM     16  C   UNL     1      23.578   6.073  53.947  1.00  0.00     0.060 A 
ATOM     17  C   UNL     1      23.163   6.339  52.641  1.00  0.00     0.039 A 
BRANCH  15  18
ATOM     18  N   UNL     1      23.212   5.917  50.274  1.00  0.00    -0.306 N 
ATOM     19  C   UNL     1      23.949   6.203  49.126  1.00  0.00     0.116 A 
ATOM     20  C   UNL     1      21.939   6.080  49.895  1.00  0.00     0.204 A 
ATOM     21  C   UNL     1      23.083   6.513  48.136  1.00  0.00     0.056 A 
ATOM     22  N   UNL     1      21.830   6.398  48.629  1.00  0.00    -0.242 NA
ATOM     23  C   UNL     1      23.400   6.875  46.705  1.00  0.00     0.068 C 
ENDBRANCH  15  18
BRANCH  16  24
ATOM     24  C   UNL     1      23.036   6.837  55.111  1.00  0.00     0.416 C 
ATOM     25  F   UNL     1      21.992   7.641  54.828  1.00  0.00    -0.166 F 
ATOM     26  F   UNL     1      22.514   6.019  56.018  1.00  0.00    -0.166 F 
ATOM     27  F   UNL     1      23.947   7.680  55.641  1.00  0.00    -0.166 F 
ENDBRANCH  16  24
ENDBRANCH  10  12
ENDBRANCH   1   8
BRANCH   6  28
ATOM     28  N   UNL     1      30.187  -0.530  51.399  1.00  0.00    -0.324 N 
ATOM     29  H   UNL     1      29.980  -1.165  50.615  1.00  0.00     0.170 HD
BRANCH  28  30
ATOM     30  C   UNL     1      31.480  -0.037  51.583  1.00  0.00     0.227 A 
ATOM     31  N   UNL     1      32.592  -0.353  50.931  1.00  0.00    -0.221 NA
ATOM     32  N   UNL     1      31.451   0.809  52.644  1.00  0.00    -0.213 NA
ATOM     33  C   UNL     1      33.726   0.244  51.343  1.00  0.00     0.117 A 
ATOM     34  C   UNL     1      32.609   1.354  53.037  1.00  0.00     0.077 A 
ATOM     35  C   UNL     1      33.764   1.078  52.395  1.00  0.00     0.049 A 
BRANCH  34  36
ATOM     36  C   UNL     1      32.518   2.300  54.180  1.00  0.00     0.019 A 
ATOM     37  C   UNL     1      31.431   2.278  55.068  1.00  0.00     0.013 A 
ATOM     38  C   UNL     1      33.525   3.262  54.394  1.00  0.00     0.121 A 
ATOM     39  C   UNL     1      31.387   3.203  56.104  1.00  0.00     0.021 A 
ATOM     40  N   UNL     1      33.484   4.161  55.385  1.00  0.00    -0.264 NA
ATOM     41  C   UNL     1      32.446   4.101  56.235  1.00  0.00     0.111 A 
ENDBRANCH  34  36
ENDBRANCH  28  30
ENDBRANCH   6  28
TORSDOF 7
ENDMDL
