MODEL 1
REMARK VINA RESULT:   -14.405      0.000      0.000
REMARK INTER + INTRA:         -17.665
REMARK INTER:                 -16.493
REMARK INTRA:                  -1.172
REMARK CONF_INDEPENDENT:        2.088
REMARK UNBOUND:                -1.172
REMARK SMILES Cc1cn(-c2cc(NC(=O)c3ccc(C)c(Nc4nccc(-c5cccnc5)n4)c3)cc(C(F)(F)F)c2)cn1
REMARK SMILES IDX 11 1 12 2 13 3 14 4 15 5 16 6 30 7 9 8 10 9 8 10 7 12 6 13
REMARK SMILES IDX 31 14 5 15 32 16 37 17 4 18 3 19 38 20 2 21 39 22 1 23 33 24
REMARK SMILES IDX 34 25 35 26 36 27 17 28 18 30 19 31 29 32 20 33 22 34 21 35
REMARK SMILES IDX 23 36 24 37 28 38 25 39 27 40 26 41
REMARK H PARENT 8 11 17 29
ROOT
ATOM      1  C   UNL     1      27.975   1.715  53.064  1.00  0.00     0.042 A 
ATOM      2  C   UNL     1      27.674   1.174  54.323  1.00  0.00     0.014 A 
ATOM      3  C   UNL     1      28.380   0.083  54.833  1.00  0.00     0.006 A 
ATOM      4  C   UNL     1      29.350  -0.560  54.082  1.00  0.00    -0.027 A 
ATOM      5  C   UNL     1      30.107  -1.753  54.648  1.00  0.00     0.046 C 
ATOM      6  C   UNL     1      29.582  -0.092  52.789  1.00  0.00     0.045 A 
ATOM      7  C   UNL     1      28.880   1.019  52.305  1.00  0.00     0.040 A 
ENDROOT
BRANCH   1   8
ATOM      8  C   UNL     1      27.201   2.779  52.396  1.00  0.00     0.255 C 
ATOM      9  O   UNL     1      27.521   3.016  51.257  1.00  0.00    -0.269 OA
ATOM     10  N   UNL     1      26.085   3.181  53.024  1.00  0.00    -0.322 N 
ATOM     11  H   UNL     1      25.893   2.768  53.947  1.00  0.00     0.170 HD
BRANCH  10  12
ATOM     12  C   UNL     1      25.166   4.105  52.542  1.00  0.00     0.044 A 
ATOM     13  C   UNL     1      24.240   4.731  53.413  1.00  0.00     0.052 A 
ATOM     14  C   UNL     1      25.054   4.350  51.156  1.00  0.00     0.039 A 
ATOM     15  C   UNL     1      23.318   5.669  52.939  1.00  0.00     0.049 A 
ATOM     16  C   UNL     1      24.129   5.322  50.678  1.00  0.00     0.060 A 
ATOM     17  C   UNL     1      23.254   5.939  51.576  1.00  0.00     0.039 A 
BRANCH  15  18
ATOM     18  N   UNL     1      22.425   6.325  53.800  1.00  0.00    -0.306 N 
ATOM     19  C   UNL     1      22.121   6.040  55.129  1.00  0.00     0.116 A 
ATOM     20  C   UNL     1      21.597   7.327  53.482  1.00  0.00     0.204 A 
ATOM     21  C   UNL     1      21.143   6.882  55.528  1.00  0.00     0.056 A 
ATOM     22  N   UNL     1      20.851   7.701  54.493  1.00  0.00    -0.242 NA
ATOM     23  C   UNL     1      20.493   6.974  56.888  1.00  0.00     0.068 C 
ENDBRANCH  15  18
BRANCH  16  24
ATOM     24  C   UNL     1      24.073   5.606  49.212  1.00  0.00     0.416 C 
ATOM     25  F   UNL     1      24.900   6.583  48.789  1.00  0.00    -0.166 F 
ATOM     26  F   UNL     1      24.498   4.563  48.508  1.00  0.00    -0.166 F 
ATOM     27  F   UNL     1      22.856   6.033  48.818  1.00  0.00    -0.166 F 
ENDBRANCH  16  24
ENDBRANCH  10  12
ENDBRANCH   1   8
BRANCH   6  28
ATOM     28  N   UNL     1      30.665  -0.619  52.073  1.00  0.00    -0.324 N 
ATOM     29  H   UNL     1      30.531  -1.428  51.451  1.00  0.00     0.170 HD
BRANCH  28  30
ATOM     30  C   UNL     1      31.927  -0.037  52.211  1.00  0.00     0.227 A 
ATOM     31  N   UNL     1      32.311   0.935  53.027  1.00  0.00    -0.221 NA
ATOM     32  N   UNL     1      32.740  -0.593  51.276  1.00  0.00    -0.213 NA
ATOM     33  C   UNL     1      33.590   1.343  52.924  1.00  0.00     0.117 A 
ATOM     34  C   UNL     1      33.994  -0.133  51.190  1.00  0.00     0.077 A 
ATOM     35  C   UNL     1      34.437   0.843  52.011  1.00  0.00     0.049 A 
BRANCH  34  36
ATOM     36  C   UNL     1      34.853  -0.798  50.176  1.00  0.00     0.019 A 
ATOM     37  C   UNL     1      36.205  -0.452  50.017  1.00  0.00     0.013 A 
ATOM     38  C   UNL     1      34.324  -1.791  49.329  1.00  0.00     0.121 A 
ATOM     39  C   UNL     1      36.954  -1.089  49.036  1.00  0.00     0.021 A 
ATOM     40  N   UNL     1      35.038  -2.402  48.376  1.00  0.00    -0.264 NA
ATOM     41  C   UNL     1      36.335  -2.071  48.263  1.00  0.00     0.111 A 
ENDBRANCH  34  36
ENDBRANCH  28  30
ENDBRANCH   6  28
TORSDOF 7
ENDMDL
MODEL 2
REMARK VINA RESULT:   -13.601      2.241      3.675
REMARK INTER + INTRA:         -16.889
REMARK INTER:                 -15.689
REMARK INTRA:                  -1.200
REMARK CONF_INDEPENDENT:        2.088
REMARK UNBOUND:                -1.200
REMARK SMILES Cc1cn(-c2cc(NC(=O)c3ccc(C)c(Nc4nccc(-c5cccnc5)n4)c3)cc(C(F)(F)F)c2)cn1
REMARK SMILES IDX 11 1 12 2 13 3 14 4 15 5 16 6 30 7 9 8 10 9 8 10 7 12 6 13
REMARK SMILES IDX 31 14 5 15 32 16 37 17 4 18 3 19 38 20 2 21 39 22 1 23 33 24
REMARK SMILES IDX 34 25 35 26 36 27 17 28 18 30 19 31 29 32 20 33 22 34 21 35
REMARK SMILES IDX 23 36 24 37 28 38 25 39 27 40 26 41
REMARK H PARENT 8 11 17 29
ROOT
ATOM      1  C   UNL     1      28.328   1.399  53.364  1.00  0.00     0.042 A 
ATOM      2  C   UNL     1      28.124   0.818  54.624  1.00  0.00     0.014 A 
ATOM      3  C   UNL     1      28.897  -0.259  55.062  1.00  0.00     0.006 A 
ATOM      4  C   UNL     1      29.840  -0.849  54.237  1.00  0.00    -0.027 A 
ATOM      5  C   UNL     1      30.671  -2.027  54.726  1.00  0.00     0.046 C 
ATOM      6  C   UNL     1      29.976  -0.342  52.946  1.00  0.00     0.045 A 
ATOM      7  C   UNL     1      29.209   0.755  52.534  1.00  0.00     0.040 A 
ENDROOT
BRANCH   1   8
ATOM      8  C   UNL     1      27.479   2.451  52.772  1.00  0.00     0.255 C 
ATOM      9  O   UNL     1      27.819   2.839  51.681  1.00  0.00    -0.269 OA
ATOM     10  N   UNL     1      26.304   2.675  53.381  1.00  0.00    -0.322 N 
ATOM     11  H   UNL     1      26.118   2.147  54.245  1.00  0.00     0.170 HD
BRANCH  10  12
ATOM     12  C   UNL     1      25.317   3.553  52.952  1.00  0.00     0.044 A 
ATOM     13  C   UNL     1      25.161   3.856  51.576  1.00  0.00     0.052 A 
ATOM     14  C   UNL     1      24.527   4.256  53.887  1.00  0.00     0.039 A 
ATOM     15  C   UNL     1      24.165   4.731  51.134  1.00  0.00     0.049 A 
ATOM     16  C   UNL     1      23.498   5.130  53.433  1.00  0.00     0.060 A 
ATOM     17  C   UNL     1      23.358   5.377  52.065  1.00  0.00     0.039 A 
BRANCH  15  18
ATOM     18  N   UNL     1      23.975   5.005  49.772  1.00  0.00    -0.306 N 
ATOM     19  C   UNL     1      23.616   6.205  49.162  1.00  0.00     0.116 A 
ATOM     20  C   UNL     1      24.013   4.125  48.764  1.00  0.00     0.204 A 
ATOM     21  C   UNL     1      23.465   5.978  47.838  1.00  0.00     0.056 A 
ATOM     22  N   UNL     1      23.750   4.678  47.606  1.00  0.00    -0.242 NA
ATOM     23  C   UNL     1      23.101   6.971  46.761  1.00  0.00     0.068 C 
ENDBRANCH  15  18
BRANCH  16  24
ATOM     24  C   UNL     1      22.636   5.815  54.443  1.00  0.00     0.416 C 
ATOM     25  F   UNL     1      21.848   6.792  53.952  1.00  0.00    -0.166 F 
ATOM     26  F   UNL     1      21.745   4.976  54.958  1.00  0.00    -0.166 F 
ATOM     27  F   UNL     1      23.359   6.445  55.392  1.00  0.00    -0.166 F 
ENDBRANCH  16  24
ENDBRANCH  10  12
ENDBRANCH   1   8
BRANCH   6  28
ATOM     28  N   UNL     1      31.031  -0.813  52.152  1.00  0.00    -0.324 N 
ATOM     29  H   UNL     1      30.895  -1.629  51.540  1.00  0.00     0.170 HD
BRANCH  28  30
ATOM     30  C   UNL     1      32.267  -0.166  52.199  1.00  0.00     0.227 A 
ATOM     31  N   UNL     1      32.631   0.883  52.926  1.00  0.00    -0.221 NA
ATOM     32  N   UNL     1      33.074  -0.753  51.279  1.00  0.00    -0.213 NA
ATOM     33  C   UNL     1      33.885   1.339  52.746  1.00  0.00     0.117 A 
ATOM     34  C   UNL     1      34.301  -0.245  51.113  1.00  0.00     0.077 A 
ATOM     35  C   UNL     1      34.724   0.811  51.841  1.00  0.00     0.049 A 
BRANCH  34  36
ATOM     36  C   UNL     1      35.157  -0.945  50.120  1.00  0.00     0.019 A 
ATOM     37  C   UNL     1      36.430  -0.462  49.776  1.00  0.00     0.013 A 
ATOM     38  C   UNL     1      34.701  -2.114  49.480  1.00  0.00     0.121 A 
ATOM     39  C   UNL     1      37.176  -1.143  48.823  1.00  0.00     0.021 A 
ATOM     40  N   UNL     1      35.412  -2.771  48.555  1.00  0.00    -0.264 NA
ATOM     41  C   UNL     1      36.637  -2.302  48.264  1.00  0.00     0.111 A 
ENDBRANCH  34  36
ENDBRANCH  28  30
ENDBRANCH   6  28
TORSDOF 7
ENDMDL
MODEL 3
REMARK VINA RESULT:   -12.407      1.193      1.779
REMARK INTER + INTRA:         -15.898
REMARK INTER:                 -14.495
REMARK INTRA:                  -1.402
REMARK CONF_INDEPENDENT:        2.088
REMARK UNBOUND:                -1.402
REMARK SMILES Cc1cn(-c2cc(NC(=O)c3ccc(C)c(Nc4nccc(-c5cccnc5)n4)c3)cc(C(F)(F)F)c2)cn1
REMARK SMILES IDX 11 1 12 2 13 3 14 4 15 5 16 6 30 7 9 8 10 9 8 10 7 12 6 13
REMARK SMILES IDX 31 14 5 15 32 16 37 17 4 18 3 19 38 20 2 21 39 22 1 23 33 24
REMARK SMILES IDX 34 25 35 26 36 27 17 28 18 30 19 31 29 32 20 33 22 34 21 35
REMARK SMILES IDX 23 36 24 37 28 38 25 39 27 40 26 41
REMARK H PARENT 8 11 17 29
ROOT
ATOM      1  C   UNL     1      28.120   1.869  53.066  1.00  0.00     0.042 A 
ATOM      2  C   UNL     1      27.747   0.546  53.348  1.00  0.00     0.014 A 
ATOM      3  C   UNL     1      28.633  -0.347  53.951  1.00  0.00     0.006 A 
ATOM      4  C   UNL     1      29.944   0.013  54.219  1.00  0.00    -0.027 A 
ATOM      5  C   UNL     1      30.903  -0.974  54.870  1.00  0.00     0.046 C 
ATOM      6  C   UNL     1      30.352   1.294  53.847  1.00  0.00     0.045 A 
ATOM      7  C   UNL     1      29.439   2.183  53.265  1.00  0.00     0.040 A 
ENDROOT
BRANCH   1   8
ATOM      8  C   UNL     1      27.294   2.838  52.319  1.00  0.00     0.255 C 
ATOM      9  O   UNL     1      27.550   2.940  51.144  1.00  0.00    -0.269 OA
ATOM     10  N   UNL     1      26.206   3.301  52.954  1.00  0.00    -0.322 N 
ATOM     11  H   UNL     1      26.070   2.999  53.929  1.00  0.00     0.170 HD
BRANCH  10  12
ATOM     12  C   UNL     1      25.248   4.151  52.416  1.00  0.00     0.044 A 
ATOM     13  C   UNL     1      24.317   4.818  53.251  1.00  0.00     0.052 A 
ATOM     14  C   UNL     1      25.103   4.276  51.018  1.00  0.00     0.039 A 
ATOM     15  C   UNL     1      23.356   5.682  52.720  1.00  0.00     0.049 A 
ATOM     16  C   UNL     1      24.138   5.175  50.480  1.00  0.00     0.060 A 
ATOM     17  C   UNL     1      23.259   5.835  51.341  1.00  0.00     0.039 A 
BRANCH  15  18
ATOM     18  N   UNL     1      22.456   6.379  53.541  1.00  0.00    -0.306 N 
ATOM     19  C   UNL     1      22.260   6.269  54.917  1.00  0.00     0.116 A 
ATOM     20  C   UNL     1      21.519   7.248  53.146  1.00  0.00     0.204 A 
ATOM     21  C   UNL     1      21.231   7.072  55.262  1.00  0.00     0.056 A 
ATOM     22  N   UNL     1      20.802   7.701  54.145  1.00  0.00    -0.242 NA
ATOM     23  C   UNL     1      20.657   7.307  56.639  1.00  0.00     0.068 C 
ENDBRANCH  15  18
BRANCH  16  24
ATOM     24  C   UNL     1      24.046   5.333  48.997  1.00  0.00     0.416 C 
ATOM     25  F   UNL     1      24.768   6.350  48.487  1.00  0.00    -0.166 F 
ATOM     26  F   UNL     1      24.570   4.284  48.372  1.00  0.00    -0.166 F 
ATOM     27  F   UNL     1      22.790   5.603  48.586  1.00  0.00    -0.166 F 
ENDBRANCH  16  24
ENDBRANCH  10  12
ENDBRANCH   1   8
BRANCH   6  28
ATOM     28  N   UNL     1      31.618   1.735  54.253  1.00  0.00    -0.324 N 
ATOM     29  H   UNL     1      31.707   2.446  54.992  1.00  0.00     0.170 HD
BRANCH  28  30
ATOM     30  C   UNL     1      32.757   1.203  53.646  1.00  0.00     0.227 A 
ATOM     31  N   UNL     1      34.030   1.351  53.992  1.00  0.00    -0.221 NA
ATOM     32  N   UNL     1      32.358   0.532  52.536  1.00  0.00    -0.213 NA
ATOM     33  C   UNL     1      34.945   0.759  53.201  1.00  0.00     0.117 A 
ATOM     34  C   UNL     1      33.305  -0.012  51.763  1.00  0.00     0.077 A 
ATOM     35  C   UNL     1      34.613   0.096  52.082  1.00  0.00     0.049 A 
BRANCH  34  36
ATOM     36  C   UNL     1      32.815  -0.765  50.579  1.00  0.00     0.019 A 
ATOM     37  C   UNL     1      31.443  -0.918  50.322  1.00  0.00     0.013 A 
ATOM     38  C   UNL     1      33.724  -1.362  49.684  1.00  0.00     0.121 A 
ATOM     39  C   UNL     1      31.043  -1.654  49.213  1.00  0.00     0.021 A 
ATOM     40  N   UNL     1      33.344  -2.079  48.619  1.00  0.00    -0.264 NA
ATOM     41  C   UNL     1      32.027  -2.189  48.383  1.00  0.00     0.111 A 
ENDBRANCH  34  36
ENDBRANCH  28  30
ENDBRANCH   6  28
TORSDOF 7
ENDMDL
MODEL 4
REMARK VINA RESULT:   -11.774      3.084      4.217
REMARK INTER + INTRA:         -14.848
REMARK INTER:                 -13.862
REMARK INTRA:                  -0.986
REMARK CONF_INDEPENDENT:        2.088
REMARK UNBOUND:                -0.986
REMARK SMILES Cc1cn(-c2cc(NC(=O)c3ccc(C)c(Nc4nccc(-c5cccnc5)n4)c3)cc(C(F)(F)F)c2)cn1
REMARK SMILES IDX 11 1 12 2 13 3 14 4 15 5 16 6 30 7 9 8 10 9 8 10 7 12 6 13
REMARK SMILES IDX 31 14 5 15 32 16 37 17 4 18 3 19 38 20 2 21 39 22 1 23 33 24
REMARK SMILES IDX 34 25 35 26 36 27 17 28 18 30 19 31 29 32 20 33 22 34 21 35
REMARK SMILES IDX 23 36 24 37 28 38 25 39 27 40 26 41
REMARK H PARENT 8 11 17 29
ROOT
ATOM      1  C   UNL     1      28.184   2.590  52.697  1.00  0.00     0.042 A 
ATOM      2  C   UNL     1      28.086   3.162  53.974  1.00  0.00     0.014 A 
ATOM      3  C   UNL     1      29.140   3.092  54.886  1.00  0.00     0.006 A 
ATOM      4  C   UNL     1      30.295   2.384  54.595  1.00  0.00    -0.027 A 
ATOM      5  C   UNL     1      31.435   2.310  55.602  1.00  0.00     0.046 C 
ATOM      6  C   UNL     1      30.358   1.726  53.368  1.00  0.00     0.045 A 
ATOM      7  C   UNL     1      29.299   1.829  52.457  1.00  0.00     0.040 A 
ENDROOT
BRANCH   1   8
ATOM      8  C   UNL     1      27.079   2.507  51.723  1.00  0.00     0.255 C 
ATOM      9  O   UNL     1      26.763   1.390  51.392  1.00  0.00    -0.269 OA
ATOM     10  N   UNL     1      26.391   3.639  51.510  1.00  0.00    -0.322 N 
ATOM     11  H   UNL     1      26.727   4.487  51.988  1.00  0.00     0.170 HD
BRANCH  10  12
ATOM     12  C   UNL     1      25.268   3.772  50.703  1.00  0.00     0.044 A 
ATOM     13  C   UNL     1      24.536   2.633  50.282  1.00  0.00     0.052 A 
ATOM     14  C   UNL     1      24.900   5.033  50.187  1.00  0.00     0.039 A 
ATOM     15  C   UNL     1      23.399   2.758  49.479  1.00  0.00     0.049 A 
ATOM     16  C   UNL     1      23.728   5.160  49.387  1.00  0.00     0.060 A 
ATOM     17  C   UNL     1      23.019   4.014  49.019  1.00  0.00     0.039 A 
BRANCH  15  18
ATOM     18  N   UNL     1      22.644   1.641  49.091  1.00  0.00    -0.306 N 
ATOM     19  C   UNL     1      22.267   0.533  49.848  1.00  0.00     0.116 A 
ATOM     20  C   UNL     1      22.200   1.362  47.859  1.00  0.00     0.204 A 
ATOM     21  C   UNL     1      21.621  -0.333  49.036  1.00  0.00     0.056 A 
ATOM     22  N   UNL     1      21.561   0.219  47.804  1.00  0.00    -0.242 NA
ATOM     23  C   UNL     1      21.008  -1.664  49.398  1.00  0.00     0.068 C 
ENDBRANCH  15  18
BRANCH  16  24
ATOM     24  C   UNL     1      23.329   6.516  48.903  1.00  0.00     0.416 C 
ATOM     25  F   UNL     1      23.753   7.542  49.668  1.00  0.00    -0.166 F 
ATOM     26  F   UNL     1      23.895   6.792  47.734  1.00  0.00    -0.166 F 
ATOM     27  F   UNL     1      21.989   6.678  48.878  1.00  0.00    -0.166 F 
ENDBRANCH  16  24
ENDBRANCH  10  12
ENDBRANCH   1   8
BRANCH   6  28
ATOM     28  N   UNL     1      31.572   1.142  52.985  1.00  0.00    -0.324 N 
ATOM     29  H   UNL     1      32.438   1.359  53.500  1.00  0.00     0.170 HD
BRANCH  28  30
ATOM     30  C   UNL     1      31.601   0.264  51.900  1.00  0.00     0.227 A 
ATOM     31  N   UNL     1      30.591  -0.363  51.310  1.00  0.00    -0.221 NA
ATOM     32  N   UNL     1      32.901   0.071  51.561  1.00  0.00    -0.213 NA
ATOM     33  C   UNL     1      30.904  -1.198  50.301  1.00  0.00     0.117 A 
ATOM     34  C   UNL     1      33.165  -0.792  50.573  1.00  0.00     0.077 A 
ATOM     35  C   UNL     1      32.170  -1.441  49.930  1.00  0.00     0.049 A 
BRANCH  34  36
ATOM     36  C   UNL     1      34.600  -0.941  50.215  1.00  0.00     0.019 A 
ATOM     37  C   UNL     1      35.043  -1.967  49.365  1.00  0.00     0.013 A 
ATOM     38  C   UNL     1      35.563  -0.057  50.740  1.00  0.00     0.121 A 
ATOM     39  C   UNL     1      36.400  -2.073  49.086  1.00  0.00     0.021 A 
ATOM     40  N   UNL     1      36.873  -0.160  50.481  1.00  0.00    -0.264 NA
ATOM     41  C   UNL     1      37.266  -1.134  49.644  1.00  0.00     0.111 A 
ENDBRANCH  34  36
ENDBRANCH  28  30
ENDBRANCH   6  28
TORSDOF 7
ENDMDL
MODEL 5
REMARK VINA RESULT:   -11.705      1.605      3.503
REMARK INTER + INTRA:         -15.318
REMARK INTER:                 -13.793
REMARK INTRA:                  -1.525
REMARK CONF_INDEPENDENT:        2.088
REMARK UNBOUND:                -1.525
REMARK SMILES Cc1cn(-c2cc(NC(=O)c3ccc(C)c(Nc4nccc(-c5cccnc5)n4)c3)cc(C(F)(F)F)c2)cn1
REMARK SMILES IDX 11 1 12 2 13 3 14 4 15 5 16 6 30 7 9 8 10 9 8 10 7 12 6 13
REMARK SMILES IDX 31 14 5 15 32 16 37 17 4 18 3 19 38 20 2 21 39 22 1 23 33 24
REMARK SMILES IDX 34 25 35 26 36 27 17 28 18 30 19 31 29 32 20 33 22 34 21 35
REMARK SMILES IDX 23 36 24 37 28 38 25 39 27 40 26 41
REMARK H PARENT 8 11 17 29
ROOT
ATOM      1  C   UNL     1      27.536   1.920  52.737  1.00  0.00     0.042 A 
ATOM      2  C   UNL     1      27.310   1.380  54.012  1.00  0.00     0.014 A 
ATOM      3  C   UNL     1      28.021   0.269  54.468  1.00  0.00     0.006 A 
ATOM      4  C   UNL     1      28.919  -0.395  53.648  1.00  0.00    -0.027 A 
ATOM      5  C   UNL     1      29.683  -1.609  54.156  1.00  0.00     0.046 C 
ATOM      6  C   UNL     1      29.072   0.074  52.344  1.00  0.00     0.045 A 
ATOM      7  C   UNL     1      28.367   1.205  51.914  1.00  0.00     0.040 A 
ENDROOT
BRANCH   1   8
ATOM      8  C   UNL     1      26.744   3.007  52.128  1.00  0.00     0.255 C 
ATOM      9  O   UNL     1      26.862   3.128  50.933  1.00  0.00    -0.269 OA
ATOM     10  N   UNL     1      25.807   3.565  52.910  1.00  0.00    -0.322 N 
ATOM     11  H   UNL     1      25.759   3.241  53.886  1.00  0.00     0.170 HD
BRANCH  10  12
ATOM     12  C   UNL     1      24.898   4.541  52.523  1.00  0.00     0.044 A 
ATOM     13  C   UNL     1      24.148   5.259  53.487  1.00  0.00     0.052 A 
ATOM     14  C   UNL     1      24.612   4.754  51.156  1.00  0.00     0.039 A 
ATOM     15  C   UNL     1      23.237   6.250  53.107  1.00  0.00     0.049 A 
ATOM     16  C   UNL     1      23.700   5.779  50.772  1.00  0.00     0.060 A 
ATOM     17  C   UNL     1      23.004   6.485  51.756  1.00  0.00     0.039 A 
BRANCH  15  18
ATOM     18  N   UNL     1      22.521   6.996  54.055  1.00  0.00    -0.306 N 
ATOM     19  C   UNL     1      21.650   6.547  55.047  1.00  0.00     0.116 A 
ATOM     20  C   UNL     1      22.456   8.329  54.143  1.00  0.00     0.204 A 
ATOM     21  C   UNL     1      21.124   7.625  55.667  1.00  0.00     0.056 A 
ATOM     22  N   UNL     1      21.666   8.730  55.109  1.00  0.00    -0.242 NA
ATOM     23  C   UNL     1      20.147   7.651  56.818  1.00  0.00     0.068 C 
ENDBRANCH  15  18
BRANCH  16  24
ATOM     24  C   UNL     1      23.462   6.024  49.317  1.00  0.00     0.416 C 
ATOM     25  F   UNL     1      24.575   6.208  48.581  1.00  0.00    -0.166 F 
ATOM     26  F   UNL     1      22.921   4.960  48.737  1.00  0.00    -0.166 F 
ATOM     27  F   UNL     1      22.751   7.149  49.097  1.00  0.00    -0.166 F 
ENDBRANCH  16  24
ENDBRANCH  10  12
ENDBRANCH   1   8
BRANCH   6  28
ATOM     28  N   UNL     1      30.088  -0.477  51.553  1.00  0.00    -0.324 N 
ATOM     29  H   UNL     1      29.867  -1.198  50.851  1.00  0.00     0.170 HD
BRANCH  28  30
ATOM     30  C   UNL     1      31.404  -0.040  51.722  1.00  0.00     0.227 A 
ATOM     31  N   UNL     1      32.500  -0.437  51.089  1.00  0.00    -0.221 NA
ATOM     32  N   UNL     1      31.413   0.852  52.746  1.00  0.00    -0.213 NA
ATOM     33  C   UNL     1      33.661   0.122  51.481  1.00  0.00     0.117 A 
ATOM     34  C   UNL     1      32.594   1.356  53.121  1.00  0.00     0.077 A 
ATOM     35  C   UNL     1      33.736   0.997  52.496  1.00  0.00     0.049 A 
BRANCH  34  36
ATOM     36  C   UNL     1      32.547   2.353  54.221  1.00  0.00     0.019 A 
ATOM     37  C   UNL     1      33.523   3.355  54.349  1.00  0.00     0.013 A 
ATOM     38  C   UNL     1      31.519   2.308  55.184  1.00  0.00     0.121 A 
ATOM     39  C   UNL     1      33.441   4.245  55.412  1.00  0.00     0.021 A 
ATOM     40  N   UNL     1      31.440   3.158  56.215  1.00  0.00    -0.264 NA
ATOM     41  C   UNL     1      32.372   4.122  56.298  1.00  0.00     0.111 A 
ENDBRANCH  34  36
ENDBRANCH  28  30
ENDBRANCH   6  28
TORSDOF 7
ENDMDL
MODEL 6
REMARK VINA RESULT:   -11.547      4.179     11.215
REMARK INTER + INTRA:         -14.819
REMARK INTER:                 -13.635
REMARK INTRA:                  -1.183
REMARK CONF_INDEPENDENT:        2.088
REMARK UNBOUND:                -1.183
REMARK SMILES Cc1cn(-c2cc(NC(=O)c3ccc(C)c(Nc4nccc(-c5cccnc5)n4)c3)cc(C(F)(F)F)c2)cn1
REMARK SMILES IDX 11 1 12 2 13 3 14 4 15 5 16 6 30 7 9 8 10 9 8 10 7 12 6 13
REMARK SMILES IDX 31 14 5 15 32 16 37 17 4 18 3 19 38 20 2 21 39 22 1 23 33 24
REMARK SMILES IDX 34 25 35 26 36 27 17 28 18 30 19 31 29 32 20 33 22 34 21 35
REMARK SMILES IDX 23 36 24 37 28 38 25 39 27 40 26 41
REMARK H PARENT 8 11 17 29
ROOT
ATOM      1  C   UNL     1      25.872   3.883  52.065  1.00  0.00     0.042 A 
ATOM      2  C   UNL     1      25.273   4.391  50.902  1.00  0.00     0.014 A 
ATOM      3  C   UNL     1      24.161   5.232  50.965  1.00  0.00     0.006 A 
ATOM      4  C   UNL     1      23.554   5.531  52.174  1.00  0.00    -0.027 A 
ATOM      5  C   UNL     1      22.337   6.443  52.227  1.00  0.00     0.046 C 
ATOM      6  C   UNL     1      24.082   4.946  53.324  1.00  0.00     0.045 A 
ATOM      7  C   UNL     1      25.214   4.125  53.242  1.00  0.00     0.040 A 
ENDROOT
BRANCH   1   8
ATOM      8  C   UNL     1      26.966   2.892  52.086  1.00  0.00     0.255 C 
ATOM      9  O   UNL     1      27.643   2.845  51.088  1.00  0.00    -0.269 OA
ATOM     10  N   UNL     1      27.244   2.343  53.278  1.00  0.00    -0.322 N 
ATOM     11  H   UNL     1      26.634   2.604  54.066  1.00  0.00     0.170 HD
BRANCH  10  12
ATOM     12  C   UNL     1      28.278   1.456  53.547  1.00  0.00     0.044 A 
ATOM     13  C   UNL     1      29.585   1.691  53.051  1.00  0.00     0.052 A 
ATOM     14  C   UNL     1      28.025   0.239  54.217  1.00  0.00     0.039 A 
ATOM     15  C   UNL     1      30.634   0.809  53.325  1.00  0.00     0.049 A 
ATOM     16  C   UNL     1      29.099  -0.647  54.514  1.00  0.00     0.060 A 
ATOM     17  C   UNL     1      30.379  -0.361  54.032  1.00  0.00     0.039 A 
BRANCH  15  18
ATOM     18  N   UNL     1      31.940   1.054  52.874  1.00  0.00    -0.306 N 
ATOM     19  C   UNL     1      32.584   0.555  51.743  1.00  0.00     0.116 A 
ATOM     20  C   UNL     1      32.885   1.761  53.504  1.00  0.00     0.204 A 
ATOM     21  C   UNL     1      33.862   0.992  51.758  1.00  0.00     0.056 A 
ATOM     22  N   UNL     1      34.022   1.772  52.851  1.00  0.00    -0.242 NA
ATOM     23  C   UNL     1      34.944   0.734  50.738  1.00  0.00     0.068 C 
ENDBRANCH  15  18
BRANCH  16  24
ATOM     24  C   UNL     1      28.812  -1.899  55.278  1.00  0.00     0.416 C 
ATOM     25  F   UNL     1      27.951  -2.746  54.680  1.00  0.00    -0.166 F 
ATOM     26  F   UNL     1      29.902  -2.649  55.391  1.00  0.00    -0.166 F 
ATOM     27  F   UNL     1      28.231  -1.650  56.470  1.00  0.00    -0.166 F 
ENDBRANCH  16  24
ENDBRANCH  10  12
ENDBRANCH   1   8
BRANCH   6  28
ATOM     28  N   UNL     1      23.590   5.360  54.569  1.00  0.00    -0.324 N 
ATOM     29  H   UNL     1      22.877   4.799  55.058  1.00  0.00     0.170 HD
BRANCH  28  30
ATOM     30  C   UNL     1      24.073   6.538  55.141  1.00  0.00     0.227 A 
ATOM     31  N   UNL     1      24.114   7.759  54.623  1.00  0.00    -0.221 NA
ATOM     32  N   UNL     1      24.598   6.222  56.353  1.00  0.00    -0.213 NA
ATOM     33  C   UNL     1      24.678   8.719  55.380  1.00  0.00     0.117 A 
ATOM     34  C   UNL     1      25.177   7.204  57.055  1.00  0.00     0.077 A 
ATOM     35  C   UNL     1      25.227   8.466  56.578  1.00  0.00     0.049 A 
BRANCH  34  36
ATOM     36  C   UNL     1      25.705   6.814  58.388  1.00  0.00     0.019 A 
ATOM     37  C   UNL     1      24.855   6.379  59.417  1.00  0.00     0.013 A 
ATOM     38  C   UNL     1      27.085   6.887  58.660  1.00  0.00     0.121 A 
ATOM     39  C   UNL     1      25.402   6.052  60.652  1.00  0.00     0.021 A 
ATOM     40  N   UNL     1      27.617   6.581  59.850  1.00  0.00    -0.264 NA
ATOM     41  C   UNL     1      26.784   6.144  60.809  1.00  0.00     0.111 A 
ENDBRANCH  34  36
ENDBRANCH  28  30
ENDBRANCH   6  28
TORSDOF 7
ENDMDL
MODEL 7
REMARK VINA RESULT:   -11.500      3.755     11.734
REMARK INTER + INTRA:         -14.736
REMARK INTER:                 -13.588
REMARK INTRA:                  -1.148
REMARK CONF_INDEPENDENT:        2.088
REMARK UNBOUND:                -1.148
REMARK SMILES Cc1cn(-c2cc(NC(=O)c3ccc(C)c(Nc4nccc(-c5cccnc5)n4)c3)cc(C(F)(F)F)c2)cn1
REMARK SMILES IDX 11 1 12 2 13 3 14 4 15 5 16 6 30 7 9 8 10 9 8 10 7 12 6 13
REMARK SMILES IDX 31 14 5 15 32 16 37 17 4 18 3 19 38 20 2 21 39 22 1 23 33 24
REMARK SMILES IDX 34 25 35 26 36 27 17 28 18 30 19 31 29 32 20 33 22 34 21 35
REMARK SMILES IDX 23 36 24 37 28 38 25 39 27 40 26 41
REMARK H PARENT 8 11 17 29
ROOT
ATOM      1  C   UNL     1      25.956   3.742  51.743  1.00  0.00     0.042 A 
ATOM      2  C   UNL     1      25.313   4.111  50.552  1.00  0.00     0.014 A 
ATOM      3  C   UNL     1      24.168   4.908  50.561  1.00  0.00     0.006 A 
ATOM      4  C   UNL     1      23.572   5.296  51.751  1.00  0.00    -0.027 A 
ATOM      5  C   UNL     1      22.318   6.159  51.745  1.00  0.00     0.046 C 
ATOM      6  C   UNL     1      24.146   4.846  52.938  1.00  0.00     0.045 A 
ATOM      7  C   UNL     1      25.311   4.068  52.908  1.00  0.00     0.040 A 
ENDROOT
BRANCH   1   8
ATOM      8  C   UNL     1      27.091   2.803  51.833  1.00  0.00     0.255 C 
ATOM      9  O   UNL     1      27.869   2.840  50.910  1.00  0.00    -0.269 OA
ATOM     10  N   UNL     1      27.273   2.205  53.020  1.00  0.00    -0.322 N 
ATOM     11  H   UNL     1      26.573   2.395  53.751  1.00  0.00     0.170 HD
BRANCH  10  12
ATOM     12  C   UNL     1      28.319   1.354  53.354  1.00  0.00     0.044 A 
ATOM     13  C   UNL     1      29.635   1.604  52.894  1.00  0.00     0.052 A 
ATOM     14  C   UNL     1      28.072   0.155  54.058  1.00  0.00     0.039 A 
ATOM     15  C   UNL     1      30.696   0.759  53.232  1.00  0.00     0.049 A 
ATOM     16  C   UNL     1      29.157  -0.693  54.421  1.00  0.00     0.060 A 
ATOM     17  C   UNL     1      30.445  -0.392  53.972  1.00  0.00     0.039 A 
BRANCH  15  18
ATOM     18  N   UNL     1      32.010   1.021  52.817  1.00  0.00    -0.306 N 
ATOM     19  C   UNL     1      32.664   0.596  51.662  1.00  0.00     0.116 A 
ATOM     20  C   UNL     1      32.953   1.673  53.507  1.00  0.00     0.204 A 
ATOM     21  C   UNL     1      33.946   1.018  51.724  1.00  0.00     0.056 A 
ATOM     22  N   UNL     1      34.098   1.718  52.871  1.00  0.00    -0.242 NA
ATOM     23  C   UNL     1      35.040   0.820  50.702  1.00  0.00     0.068 C 
ENDBRANCH  15  18
BRANCH  16  24
ATOM     24  C   UNL     1      28.874  -1.924  55.218  1.00  0.00     0.416 C 
ATOM     25  F   UNL     1      28.029  -2.798  54.636  1.00  0.00    -0.166 F 
ATOM     26  F   UNL     1      29.970  -2.659  55.366  1.00  0.00    -0.166 F 
ATOM     27  F   UNL     1      28.277  -1.647  56.396  1.00  0.00    -0.166 F 
ENDBRANCH  16  24
ENDBRANCH  10  12
ENDBRANCH   1   8
BRANCH   6  28
ATOM     28  N   UNL     1      23.661   5.356  54.149  1.00  0.00    -0.324 N 
ATOM     29  H   UNL     1      22.668   5.245  54.399  1.00  0.00     0.170 HD
BRANCH  28  30
ATOM     30  C   UNL     1      24.535   6.016  55.015  1.00  0.00     0.227 A 
ATOM     31  N   UNL     1      25.843   6.201  54.897  1.00  0.00    -0.221 NA
ATOM     32  N   UNL     1      23.821   6.402  56.104  1.00  0.00    -0.213 NA
ATOM     33  C   UNL     1      26.459   6.842  55.909  1.00  0.00     0.117 A 
ATOM     34  C   UNL     1      24.482   7.007  57.098  1.00  0.00     0.077 A 
ATOM     35  C   UNL     1      25.811   7.233  57.017  1.00  0.00     0.049 A 
BRANCH  34  36
ATOM     36  C   UNL     1      23.651   7.440  58.252  1.00  0.00     0.019 A 
ATOM     37  C   UNL     1      22.252   7.316  58.239  1.00  0.00     0.013 A 
ATOM     38  C   UNL     1      24.251   8.008  59.393  1.00  0.00     0.121 A 
ATOM     39  C   UNL     1      21.525   7.761  59.335  1.00  0.00     0.021 A 
ATOM     40  N   UNL     1      23.554   8.446  60.449  1.00  0.00    -0.264 NA
ATOM     41  C   UNL     1      22.220   8.292  60.420  1.00  0.00     0.111 A 
ENDBRANCH  34  36
ENDBRANCH  28  30
ENDBRANCH   6  28
TORSDOF 7
ENDMDL
MODEL 8
REMARK VINA RESULT:   -11.151      3.655     12.205
REMARK INTER + INTRA:         -14.362
REMARK INTER:                 -13.239
REMARK INTRA:                  -1.124
REMARK CONF_INDEPENDENT:        2.088
REMARK UNBOUND:                -1.124
REMARK SMILES Cc1cn(-c2cc(NC(=O)c3ccc(C)c(Nc4nccc(-c5cccnc5)n4)c3)cc(C(F)(F)F)c2)cn1
REMARK SMILES IDX 11 1 12 2 13 3 14 4 15 5 16 6 30 7 9 8 10 9 8 10 7 12 6 13
REMARK SMILES IDX 31 14 5 15 32 16 37 17 4 18 3 19 38 20 2 21 39 22 1 23 33 24
REMARK SMILES IDX 34 25 35 26 36 27 17 28 18 30 19 31 29 32 20 33 22 34 21 35
REMARK SMILES IDX 23 36 24 37 28 38 25 39 27 40 26 41
REMARK H PARENT 8 11 17 29
ROOT
ATOM      1  C   UNL     1      25.735   3.679  51.837  1.00  0.00     0.042 A 
ATOM      2  C   UNL     1      25.283   4.273  50.648  1.00  0.00     0.014 A 
ATOM      3  C   UNL     1      24.102   5.014  50.609  1.00  0.00     0.006 A 
ATOM      4  C   UNL     1      23.285   5.123  51.723  1.00  0.00    -0.027 A 
ATOM      5  C   UNL     1      21.995   5.929  51.664  1.00  0.00     0.046 C 
ATOM      6  C   UNL     1      23.675   4.449  52.879  1.00  0.00     0.045 A 
ATOM      7  C   UNL     1      24.878   3.731  52.905  1.00  0.00     0.040 A 
ENDROOT
BRANCH   1   8
ATOM      8  C   UNL     1      26.899   2.777  51.940  1.00  0.00     0.255 C 
ATOM      9  O   UNL     1      27.672   2.821  51.015  1.00  0.00    -0.269 OA
ATOM     10  N   UNL     1      27.101   2.206  53.137  1.00  0.00    -0.322 N 
ATOM     11  H   UNL     1      26.396   2.388  53.866  1.00  0.00     0.170 HD
BRANCH  10  12
ATOM     12  C   UNL     1      28.173   1.394  53.483  1.00  0.00     0.044 A 
ATOM     13  C   UNL     1      29.489   1.708  53.062  1.00  0.00     0.052 A 
ATOM     14  C   UNL     1      27.960   0.173  54.159  1.00  0.00     0.039 A 
ATOM     15  C   UNL     1      30.575   0.902  53.413  1.00  0.00     0.049 A 
ATOM     16  C   UNL     1      29.070  -0.635  54.536  1.00  0.00     0.060 A 
ATOM     17  C   UNL     1      30.355  -0.273  54.125  1.00  0.00     0.039 A 
BRANCH  15  18
ATOM     18  N   UNL     1      31.887   1.226  53.037  1.00  0.00    -0.306 N 
ATOM     19  C   UNL     1      32.647   0.721  51.983  1.00  0.00     0.116 A 
ATOM     20  C   UNL     1      32.728   2.041  53.685  1.00  0.00     0.204 A 
ATOM     21  C   UNL     1      33.883   1.260  52.057  1.00  0.00     0.056 A 
ATOM     22  N   UNL     1      33.904   2.108  53.109  1.00  0.00    -0.242 NA
ATOM     23  C   UNL     1      35.052   1.035  51.128  1.00  0.00     0.068 C 
ENDBRANCH  15  18
BRANCH  16  24
ATOM     24  C   UNL     1      28.820  -1.893  55.304  1.00  0.00     0.416 C 
ATOM     25  F   UNL     1      27.948  -2.746  54.731  1.00  0.00    -0.166 F 
ATOM     26  F   UNL     1      29.920  -2.632  55.380  1.00  0.00    -0.166 F 
ATOM     27  F   UNL     1      28.275  -1.654  56.515  1.00  0.00    -0.166 F 
ENDBRANCH  16  24
ENDBRANCH  10  12
ENDBRANCH   1   8
BRANCH   6  28
ATOM     28  N   UNL     1      22.955   4.677  54.059  1.00  0.00    -0.324 N 
ATOM     29  H   UNL     1      22.337   3.946  54.439  1.00  0.00     0.170 HD
BRANCH  28  30
ATOM     30  C   UNL     1      23.082   5.902  54.716  1.00  0.00     0.227 A 
ATOM     31  N   UNL     1      23.972   6.268  55.630  1.00  0.00    -0.221 NA
ATOM     32  N   UNL     1      22.053   6.692  54.317  1.00  0.00    -0.213 NA
ATOM     33  C   UNL     1      23.841   7.508  56.140  1.00  0.00     0.117 A 
ATOM     34  C   UNL     1      21.946   7.904  54.875  1.00  0.00     0.077 A 
ATOM     35  C   UNL     1      22.837   8.329  55.796  1.00  0.00     0.049 A 
BRANCH  34  36
ATOM     36  C   UNL     1      20.824   8.743  54.379  1.00  0.00     0.019 A 
ATOM     37  C   UNL     1      19.494   8.485  54.749  1.00  0.00     0.013 A 
ATOM     38  C   UNL     1      21.068   9.819  53.504  1.00  0.00     0.121 A 
ATOM     39  C   UNL     1      18.483   9.287  54.234  1.00  0.00     0.021 A 
ATOM     40  N   UNL     1      20.097  10.591  52.998  1.00  0.00    -0.264 NA
ATOM     41  C   UNL     1      18.837  10.338  53.389  1.00  0.00     0.111 A 
ENDBRANCH  34  36
ENDBRANCH  28  30
ENDBRANCH   6  28
TORSDOF 7
ENDMDL
MODEL 9
REMARK VINA RESULT:   -11.000      3.872     11.742
REMARK INTER + INTRA:         -14.193
REMARK INTER:                 -13.088
REMARK INTRA:                  -1.105
REMARK CONF_INDEPENDENT:        2.088
REMARK UNBOUND:                -1.105
REMARK SMILES Cc1cn(-c2cc(NC(=O)c3ccc(C)c(Nc4nccc(-c5cccnc5)n4)c3)cc(C(F)(F)F)c2)cn1
REMARK SMILES IDX 11 1 12 2 13 3 14 4 15 5 16 6 30 7 9 8 10 9 8 10 7 12 6 13
REMARK SMILES IDX 31 14 5 15 32 16 37 17 4 18 3 19 38 20 2 21 39 22 1 23 33 24
REMARK SMILES IDX 34 25 35 26 36 27 17 28 18 30 19 31 29 32 20 33 22 34 21 35
REMARK SMILES IDX 23 36 24 37 28 38 25 39 27 40 26 41
REMARK H PARENT 8 11 17 29
ROOT
ATOM      1  C   UNL     1      25.710   3.550  51.861  1.00  0.00     0.042 A 
ATOM      2  C   UNL     1      24.857   3.403  50.757  1.00  0.00     0.014 A 
ATOM      3  C   UNL     1      23.527   3.825  50.805  1.00  0.00     0.006 A 
ATOM      4  C   UNL     1      22.975   4.328  51.972  1.00  0.00    -0.027 A 
ATOM      5  C   UNL     1      21.521   4.777  52.012  1.00  0.00     0.046 C 
ATOM      6  C   UNL     1      23.789   4.380  53.102  1.00  0.00     0.045 A 
ATOM      7  C   UNL     1      25.128   3.975  53.027  1.00  0.00     0.040 A 
ENDROOT
BRANCH   1   8
ATOM      8  C   UNL     1      27.086   3.020  51.940  1.00  0.00     0.255 C 
ATOM      9  O   UNL     1      27.642   2.862  50.881  1.00  0.00    -0.269 OA
ATOM     10  N   UNL     1      27.647   3.011  53.159  1.00  0.00    -0.322 N 
ATOM     11  H   UNL     1      27.057   3.310  53.948  1.00  0.00     0.170 HD
BRANCH  10  12
ATOM     12  C   UNL     1      28.952   2.636  53.453  1.00  0.00     0.044 A 
ATOM     13  C   UNL     1      29.631   1.680  52.657  1.00  0.00     0.052 A 
ATOM     14  C   UNL     1      29.588   3.108  54.622  1.00  0.00     0.039 A 
ATOM     15  C   UNL     1      30.947   1.304  52.940  1.00  0.00     0.049 A 
ATOM     16  C   UNL     1      30.937   2.740  54.895  1.00  0.00     0.060 A 
ATOM     17  C   UNL     1      31.580   1.818  54.067  1.00  0.00     0.039 A 
BRANCH  15  18
ATOM     18  N   UNL     1      31.642   0.390  52.133  1.00  0.00    -0.306 N 
ATOM     19  C   UNL     1      31.213  -0.264  50.980  1.00  0.00     0.116 A 
ATOM     20  C   UNL     1      32.857  -0.120  52.366  1.00  0.00     0.204 A 
ATOM     21  C   UNL     1      32.186  -1.115  50.590  1.00  0.00     0.056 A 
ATOM     22  N   UNL     1      33.220  -0.986  51.451  1.00  0.00    -0.242 NA
ATOM     23  C   UNL     1      32.196  -2.027  49.387  1.00  0.00     0.068 C 
ENDBRANCH  15  18
BRANCH  16  24
ATOM     24  C   UNL     1      31.606   3.303  56.107  1.00  0.00     0.416 C 
ATOM     25  F   UNL     1      31.650   2.474  57.170  1.00  0.00    -0.166 F 
ATOM     26  F   UNL     1      32.895   3.526  55.880  1.00  0.00    -0.166 F 
ATOM     27  F   UNL     1      30.970   4.392  56.586  1.00  0.00    -0.166 F 
ENDBRANCH  16  24
ENDBRANCH  10  12
ENDBRANCH   1   8
BRANCH   6  28
ATOM     28  N   UNL     1      23.305   5.032  54.243  1.00  0.00    -0.324 N 
ATOM     29  H   UNL     1      22.323   4.917  54.530  1.00  0.00     0.170 HD
BRANCH  28  30
ATOM     30  C   UNL     1      24.165   5.841  54.989  1.00  0.00     0.227 A 
ATOM     31  N   UNL     1      25.442   6.126  54.766  1.00  0.00    -0.221 NA
ATOM     32  N   UNL     1      23.486   6.261  56.088  1.00  0.00    -0.213 NA
ATOM     33  C   UNL     1      26.056   6.906  55.676  1.00  0.00     0.117 A 
ATOM     34  C   UNL     1      24.147   7.008  56.980  1.00  0.00     0.077 A 
ATOM     35  C   UNL     1      25.442   7.339  56.789  1.00  0.00     0.049 A 
BRANCH  34  36
ATOM     36  C   UNL     1      23.351   7.471  58.146  1.00  0.00     0.019 A 
ATOM     37  C   UNL     1      23.954   7.760  59.380  1.00  0.00     0.013 A 
ATOM     38  C   UNL     1      21.954   7.619  58.044  1.00  0.00     0.121 A 
ATOM     39  C   UNL     1      23.157   8.165  60.443  1.00  0.00     0.021 A 
ATOM     40  N   UNL     1      21.179   8.002  59.067  1.00  0.00    -0.264 NA
ATOM     41  C   UNL     1      21.785   8.296  60.229  1.00  0.00     0.111 A 
ENDBRANCH  34  36
ENDBRANCH  28  30
ENDBRANCH   6  28
TORSDOF 7
ENDMDL
MODEL 10
REMARK VINA RESULT:   -10.888      8.340     15.194
REMARK INTER + INTRA:         -14.287
REMARK INTER:                 -12.976
REMARK INTRA:                  -1.311
REMARK CONF_INDEPENDENT:        2.088
REMARK UNBOUND:                -1.311
REMARK SMILES Cc1cn(-c2cc(NC(=O)c3ccc(C)c(Nc4nccc(-c5cccnc5)n4)c3)cc(C(F)(F)F)c2)cn1
REMARK SMILES IDX 11 1 12 2 13 3 14 4 15 5 16 6 30 7 9 8 10 9 8 10 7 12 6 13
REMARK SMILES IDX 31 14 5 15 32 16 37 17 4 18 3 19 38 20 2 21 39 22 1 23 33 24
REMARK SMILES IDX 34 25 35 26 36 27 17 28 18 30 19 31 29 32 20 33 22 34 21 35
REMARK SMILES IDX 23 36 24 37 28 38 25 39 27 40 26 41
REMARK H PARENT 8 11 17 29
ROOT
ATOM      1  C   UNL     1      35.980  -1.670  49.274  1.00  0.00     0.042 A 
ATOM      2  C   UNL     1      35.199  -2.830  49.160  1.00  0.00     0.014 A 
ATOM      3  C   UNL     1      33.825  -2.808  49.404  1.00  0.00     0.006 A 
ATOM      4  C   UNL     1      33.193  -1.658  49.849  1.00  0.00    -0.027 A 
ATOM      5  C   UNL     1      31.695  -1.651  50.118  1.00  0.00     0.046 C 
ATOM      6  C   UNL     1      33.981  -0.529  50.063  1.00  0.00     0.045 A 
ATOM      7  C   UNL     1      35.354  -0.565  49.788  1.00  0.00     0.040 A 
ENDROOT
BRANCH   1   8
ATOM      8  C   UNL     1      37.451  -1.629  49.159  1.00  0.00     0.255 C 
ATOM      9  O   UNL     1      38.034  -1.200  50.124  1.00  0.00    -0.269 OA
ATOM     10  N   UNL     1      37.982  -2.294  48.122  1.00  0.00    -0.322 N 
ATOM     11  H   UNL     1      37.325  -2.721  47.454  1.00  0.00     0.170 HD
BRANCH  10  12
ATOM     12  C   UNL     1      39.338  -2.458  47.866  1.00  0.00     0.044 A 
ATOM     13  C   UNL     1      39.904  -2.027  46.641  1.00  0.00     0.052 A 
ATOM     14  C   UNL     1      40.159  -3.166  48.771  1.00  0.00     0.039 A 
ATOM     15  C   UNL     1      41.268  -2.179  46.378  1.00  0.00     0.049 A 
ATOM     16  C   UNL     1      41.553  -3.300  48.512  1.00  0.00     0.060 A 
ATOM     17  C   UNL     1      42.075  -2.833  47.303  1.00  0.00     0.039 A 
BRANCH  15  18
ATOM     18  N   UNL     1      41.846  -1.718  45.186  1.00  0.00    -0.306 N 
ATOM     19  C   UNL     1      42.151  -0.412  44.808  1.00  0.00     0.116 A 
ATOM     20  C   UNL     1      42.146  -2.450  44.106  1.00  0.00     0.204 A 
ATOM     21  C   UNL     1      42.615  -0.437  43.539  1.00  0.00     0.056 A 
ATOM     22  N   UNL     1      42.635  -1.724  43.129  1.00  0.00    -0.242 NA
ATOM     23  C   UNL     1      43.091   0.725  42.701  1.00  0.00     0.068 C 
ENDBRANCH  15  18
BRANCH  16  24
ATOM     24  C   UNL     1      42.409  -4.001  49.515  1.00  0.00     0.416 C 
ATOM     25  F   UNL     1      43.736  -3.910  49.296  1.00  0.00    -0.166 F 
ATOM     26  F   UNL     1      42.290  -3.446  50.716  1.00  0.00    -0.166 F 
ATOM     27  F   UNL     1      42.186  -5.332  49.539  1.00  0.00    -0.166 F 
ENDBRANCH  16  24
ENDBRANCH  10  12
ENDBRANCH   1   8
BRANCH   6  28
ATOM     28  N   UNL     1      33.343   0.684  50.354  1.00  0.00    -0.324 N 
ATOM     29  H   UNL     1      33.003   1.287  49.592  1.00  0.00     0.170 HD
BRANCH  28  30
ATOM     30  C   UNL     1      33.173   1.068  51.685  1.00  0.00     0.227 A 
ATOM     31  N   UNL     1      33.879   1.937  52.398  1.00  0.00    -0.221 NA
ATOM     32  N   UNL     1      32.164   0.321  52.203  1.00  0.00    -0.213 NA
ATOM     33  C   UNL     1      33.525   2.090  53.688  1.00  0.00     0.117 A 
ATOM     34  C   UNL     1      31.870   0.486  53.498  1.00  0.00     0.077 A 
ATOM     35  C   UNL     1      32.547   1.371  54.261  1.00  0.00     0.049 A 
BRANCH  34  36
ATOM     36  C   UNL     1      30.736  -0.328  54.008  1.00  0.00     0.019 A 
ATOM     37  C   UNL     1      29.637   0.263  54.653  1.00  0.00     0.013 A 
ATOM     38  C   UNL     1      30.741  -1.730  53.868  1.00  0.00     0.121 A 
ATOM     39  C   UNL     1      28.618  -0.550  55.131  1.00  0.00     0.021 A 
ATOM     40  N   UNL     1      29.765  -2.519  54.334  1.00  0.00    -0.264 NA
ATOM     41  C   UNL     1      28.715  -1.926  54.924  1.00  0.00     0.111 A 
ENDBRANCH  34  36
ENDBRANCH  28  30
ENDBRANCH   6  28
TORSDOF 7
ENDMDL
MODEL 11
REMARK VINA RESULT:   -10.851      3.640     12.490
REMARK INTER + INTRA:         -14.123
REMARK INTER:                 -12.939
REMARK INTRA:                  -1.184
REMARK CONF_INDEPENDENT:        2.088
REMARK UNBOUND:                -1.184
REMARK SMILES Cc1cn(-c2cc(NC(=O)c3ccc(C)c(Nc4nccc(-c5cccnc5)n4)c3)cc(C(F)(F)F)c2)cn1
REMARK SMILES IDX 11 1 12 2 13 3 14 4 15 5 16 6 30 7 9 8 10 9 8 10 7 12 6 13
REMARK SMILES IDX 31 14 5 15 32 16 37 17 4 18 3 19 38 20 2 21 39 22 1 23 33 24
REMARK SMILES IDX 34 25 35 26 36 27 17 28 18 30 19 31 29 32 20 33 22 34 21 35
REMARK SMILES IDX 23 36 24 37 28 38 25 39 27 40 26 41
REMARK H PARENT 8 11 17 29
ROOT
ATOM      1  C   UNL     1      25.588   3.497  51.667  1.00  0.00     0.042 A 
ATOM      2  C   UNL     1      24.536   2.882  50.972  1.00  0.00     0.014 A 
ATOM      3  C   UNL     1      23.228   3.361  51.063  1.00  0.00     0.006 A 
ATOM      4  C   UNL     1      22.904   4.411  51.907  1.00  0.00    -0.027 A 
ATOM      5  C   UNL     1      21.471   4.918  52.001  1.00  0.00     0.046 C 
ATOM      6  C   UNL     1      23.927   4.959  52.678  1.00  0.00     0.045 A 
ATOM      7  C   UNL     1      25.238   4.481  52.554  1.00  0.00     0.040 A 
ENDROOT
BRANCH   1   8
ATOM      8  C   UNL     1      26.971   2.984  51.729  1.00  0.00     0.255 C 
ATOM      9  O   UNL     1      27.547   2.917  50.670  1.00  0.00    -0.269 OA
ATOM     10  N   UNL     1      27.513   2.891  52.952  1.00  0.00    -0.322 N 
ATOM     11  H   UNL     1      26.905   3.119  53.751  1.00  0.00     0.170 HD
BRANCH  10  12
ATOM     12  C   UNL     1      28.819   2.515  53.240  1.00  0.00     0.044 A 
ATOM     13  C   UNL     1      29.472   1.513  52.479  1.00  0.00     0.052 A 
ATOM     14  C   UNL     1      29.484   3.035  54.372  1.00  0.00     0.039 A 
ATOM     15  C   UNL     1      30.789   1.135  52.754  1.00  0.00     0.049 A 
ATOM     16  C   UNL     1      30.833   2.665  54.637  1.00  0.00     0.060 A 
ATOM     17  C   UNL     1      31.449   1.695  53.842  1.00  0.00     0.039 A 
BRANCH  15  18
ATOM     18  N   UNL     1      31.458   0.175  51.980  1.00  0.00    -0.306 N 
ATOM     19  C   UNL     1      32.825  -0.076  51.886  1.00  0.00     0.116 A 
ATOM     20  C   UNL     1      30.911  -0.655  51.084  1.00  0.00     0.204 A 
ATOM     21  C   UNL     1      33.016  -1.034  50.953  1.00  0.00     0.056 A 
ATOM     22  N   UNL     1      31.803  -1.406  50.486  1.00  0.00    -0.242 NA
ATOM     23  C   UNL     1      34.319  -1.654  50.511  1.00  0.00     0.068 C 
ENDBRANCH  15  18
BRANCH  16  24
ATOM     24  C   UNL     1      31.532   3.277  55.807  1.00  0.00     0.416 C 
ATOM     25  F   UNL     1      31.651   2.474  56.883  1.00  0.00    -0.166 F 
ATOM     26  F   UNL     1      32.801   3.541  55.520  1.00  0.00    -0.166 F 
ATOM     27  F   UNL     1      30.878   4.353  56.290  1.00  0.00    -0.166 F 
ENDBRANCH  16  24
ENDBRANCH  10  12
ENDBRANCH   1   8
BRANCH   6  28
ATOM     28  N   UNL     1      23.659   6.121  53.413  1.00  0.00    -0.324 N 
ATOM     29  H   UNL     1      23.779   6.128  54.436  1.00  0.00     0.170 HD
BRANCH  28  30
ATOM     30  C   UNL     1      23.227   7.270  52.748  1.00  0.00     0.227 A 
ATOM     31  N   UNL     1      23.771   7.881  51.703  1.00  0.00    -0.221 NA
ATOM     32  N   UNL     1      22.143   7.748  53.413  1.00  0.00    -0.213 NA
ATOM     33  C   UNL     1      23.170   9.010  51.282  1.00  0.00     0.117 A 
ATOM     34  C   UNL     1      21.600   8.890  52.976  1.00  0.00     0.077 A 
ATOM     35  C   UNL     1      22.106   9.540  51.906  1.00  0.00     0.049 A 
BRANCH  34  36
ATOM     36  C   UNL     1      20.396   9.352  53.715  1.00  0.00     0.019 A 
ATOM     37  C   UNL     1      20.130   8.928  55.027  1.00  0.00     0.013 A 
ATOM     38  C   UNL     1      19.473  10.224  53.105  1.00  0.00     0.121 A 
ATOM     39  C   UNL     1      18.976   9.373  55.659  1.00  0.00     0.021 A 
ATOM     40  N   UNL     1      18.355  10.650  53.706  1.00  0.00    -0.264 NA
ATOM     41  C   UNL     1      18.139  10.249  54.970  1.00  0.00     0.111 A 
ENDBRANCH  34  36
ENDBRANCH  28  30
ENDBRANCH   6  28
TORSDOF 7
ENDMDL
MODEL 12
REMARK VINA RESULT:   -10.804      4.663     13.526
REMARK INTER + INTRA:         -14.223
REMARK INTER:                 -12.892
REMARK INTRA:                  -1.330
REMARK CONF_INDEPENDENT:        2.088
REMARK UNBOUND:                -1.330
REMARK SMILES Cc1cn(-c2cc(NC(=O)c3ccc(C)c(Nc4nccc(-c5cccnc5)n4)c3)cc(C(F)(F)F)c2)cn1
REMARK SMILES IDX 11 1 12 2 13 3 14 4 15 5 16 6 30 7 9 8 10 9 8 10 7 12 6 13
REMARK SMILES IDX 31 14 5 15 32 16 37 17 4 18 3 19 38 20 2 21 39 22 1 23 33 24
REMARK SMILES IDX 34 25 35 26 36 27 17 28 18 30 19 31 29 32 20 33 22 34 21 35
REMARK SMILES IDX 23 36 24 37 28 38 25 39 27 40 26 41
REMARK H PARENT 8 11 17 29
ROOT
ATOM      1  C   UNL     1      21.146   7.214  54.283  1.00  0.00     0.042 A 
ATOM      2  C   UNL     1      21.025   7.377  55.671  1.00  0.00     0.014 A 
ATOM      3  C   UNL     1      20.316   8.448  56.218  1.00  0.00     0.006 A 
ATOM      4  C   UNL     1      19.775   9.438  55.413  1.00  0.00    -0.027 A 
ATOM      5  C   UNL     1      19.011  10.604  56.023  1.00  0.00     0.046 C 
ATOM      6  C   UNL     1      19.981   9.336  54.038  1.00  0.00     0.045 A 
ATOM      7  C   UNL     1      20.673   8.241  53.507  1.00  0.00     0.040 A 
ENDROOT
BRANCH   1   8
ATOM      8  C   UNL     1      21.979   6.189  53.623  1.00  0.00     0.255 C 
ATOM      9  O   UNL     1      21.867   5.070  54.061  1.00  0.00    -0.269 OA
ATOM     10  N   UNL     1      22.564   6.552  52.472  1.00  0.00    -0.322 N 
ATOM     11  H   UNL     1      22.442   7.531  52.175  1.00  0.00     0.170 HD
BRANCH  10  12
ATOM     12  C   UNL     1      23.319   5.730  51.645  1.00  0.00     0.044 A 
ATOM     13  C   UNL     1      24.417   4.996  52.157  1.00  0.00     0.052 A 
ATOM     14  C   UNL     1      23.084   5.702  50.253  1.00  0.00     0.039 A 
ATOM     15  C   UNL     1      25.176   4.158  51.335  1.00  0.00     0.049 A 
ATOM     16  C   UNL     1      23.844   4.831  49.422  1.00  0.00     0.060 A 
ATOM     17  C   UNL     1      24.899   4.101  49.973  1.00  0.00     0.039 A 
BRANCH  15  18
ATOM     18  N   UNL     1      26.239   3.394  51.840  1.00  0.00    -0.306 N 
ATOM     19  C   UNL     1      26.560   3.109  53.166  1.00  0.00     0.116 A 
ATOM     20  C   UNL     1      27.238   2.847  51.137  1.00  0.00     0.204 A 
ATOM     21  C   UNL     1      27.716   2.411  53.180  1.00  0.00     0.056 A 
ATOM     22  N   UNL     1      28.107   2.229  51.899  1.00  0.00    -0.242 NA
ATOM     23  C   UNL     1      28.454   1.860  54.376  1.00  0.00     0.068 C 
ENDBRANCH  15  18
BRANCH  16  24
ATOM     24  C   UNL     1      23.534   4.776  47.961  1.00  0.00     0.416 C 
ATOM     25  F   UNL     1      22.370   5.354  47.603  1.00  0.00    -0.166 F 
ATOM     26  F   UNL     1      24.417   5.477  47.259  1.00  0.00    -0.166 F 
ATOM     27  F   UNL     1      23.407   3.510  47.511  1.00  0.00    -0.166 F 
ENDBRANCH  16  24
ENDBRANCH  10  12
ENDBRANCH   1   8
BRANCH   6  28
ATOM     28  N   UNL     1      19.308  10.231  53.195  1.00  0.00    -0.324 N 
ATOM     29  H   UNL     1      19.834  10.798  52.515  1.00  0.00     0.170 HD
BRANCH  28  30
ATOM     30  C   UNL     1      17.920  10.347  53.284  1.00  0.00     0.227 A 
ATOM     31  N   UNL     1      17.176  11.445  53.303  1.00  0.00    -0.221 NA
ATOM     32  N   UNL     1      17.411   9.097  53.436  1.00  0.00    -0.213 NA
ATOM     33  C   UNL     1      15.847  11.275  53.442  1.00  0.00     0.117 A 
ATOM     34  C   UNL     1      16.089   8.980  53.603  1.00  0.00     0.077 A 
ATOM     35  C   UNL     1      15.287  10.067  53.611  1.00  0.00     0.049 A 
BRANCH  34  36
ATOM     36  C   UNL     1      15.578   7.590  53.729  1.00  0.00     0.019 A 
ATOM     37  C   UNL     1      14.777   7.196  54.813  1.00  0.00     0.013 A 
ATOM     38  C   UNL     1      15.900   6.619  52.761  1.00  0.00     0.121 A 
ATOM     39  C   UNL     1      14.349   5.877  54.892  1.00  0.00     0.021 A 
ATOM     40  N   UNL     1      15.497   5.344  52.836  1.00  0.00    -0.264 NA
ATOM     41  C   UNL     1      14.711   5.001  53.869  1.00  0.00     0.111 A 
ENDBRANCH  34  36
ENDBRANCH  28  30
ENDBRANCH   6  28
TORSDOF 7
ENDMDL
MODEL 13
REMARK VINA RESULT:   -10.776      4.106     11.234
REMARK INTER + INTRA:         -14.122
REMARK INTER:                 -12.864
REMARK INTRA:                  -1.258
REMARK CONF_INDEPENDENT:        2.088
REMARK UNBOUND:                -1.258
REMARK SMILES Cc1cn(-c2cc(NC(=O)c3ccc(C)c(Nc4nccc(-c5cccnc5)n4)c3)cc(C(F)(F)F)c2)cn1
REMARK SMILES IDX 11 1 12 2 13 3 14 4 15 5 16 6 30 7 9 8 10 9 8 10 7 12 6 13
REMARK SMILES IDX 31 14 5 15 32 16 37 17 4 18 3 19 38 20 2 21 39 22 1 23 33 24
REMARK SMILES IDX 34 25 35 26 36 27 17 28 18 30 19 31 29 32 20 33 22 34 21 35
REMARK SMILES IDX 23 36 24 37 28 38 25 39 27 40 26 41
REMARK H PARENT 8 11 17 29
ROOT
ATOM      1  C   UNL     1      25.625   3.709  51.900  1.00  0.00     0.042 A 
ATOM      2  C   UNL     1      24.830   3.714  50.744  1.00  0.00     0.014 A 
ATOM      3  C   UNL     1      23.493   4.110  50.784  1.00  0.00     0.006 A 
ATOM      4  C   UNL     1      22.874   4.432  51.982  1.00  0.00    -0.027 A 
ATOM      5  C   UNL     1      21.412   4.855  52.011  1.00  0.00     0.046 C 
ATOM      6  C   UNL     1      23.631   4.329  53.148  1.00  0.00     0.045 A 
ATOM      7  C   UNL     1      24.979   3.954  53.084  1.00  0.00     0.040 A 
ENDROOT
BRANCH   1   8
ATOM      8  C   UNL     1      27.005   3.188  51.973  1.00  0.00     0.255 C 
ATOM      9  O   UNL     1      27.603   3.158  50.925  1.00  0.00    -0.269 OA
ATOM     10  N   UNL     1      27.520   3.046  53.203  1.00  0.00    -0.322 N 
ATOM     11  H   UNL     1      26.896   3.247  53.997  1.00  0.00     0.170 HD
BRANCH  10  12
ATOM     12  C   UNL     1      28.818   2.654  53.504  1.00  0.00     0.044 A 
ATOM     13  C   UNL     1      29.471   1.655  52.741  1.00  0.00     0.052 A 
ATOM     14  C   UNL     1      29.472   3.155  54.651  1.00  0.00     0.039 A 
ATOM     15  C   UNL     1      30.781   1.260  53.030  1.00  0.00     0.049 A 
ATOM     16  C   UNL     1      30.814   2.769  54.930  1.00  0.00     0.060 A 
ATOM     17  C   UNL     1      31.431   1.802  54.133  1.00  0.00     0.039 A 
BRANCH  15  18
ATOM     18  N   UNL     1      31.451   0.302  52.254  1.00  0.00    -0.306 N 
ATOM     19  C   UNL     1      32.811   0.204  51.966  1.00  0.00     0.116 A 
ATOM     20  C   UNL     1      30.894  -0.684  51.542  1.00  0.00     0.204 A 
ATOM     21  C   UNL     1      32.988  -0.826  51.111  1.00  0.00     0.056 A 
ATOM     22  N   UNL     1      31.781  -1.390  50.884  1.00  0.00    -0.242 NA
ATOM     23  C   UNL     1      34.284  -1.337  50.528  1.00  0.00     0.068 C 
ENDBRANCH  15  18
BRANCH  16  24
ATOM     24  C   UNL     1      31.503   3.361  56.117  1.00  0.00     0.416 C 
ATOM     25  F   UNL     1      32.761   3.788  55.890  1.00  0.00    -0.166 F 
ATOM     26  F   UNL     1      30.900   4.476  56.511  1.00  0.00    -0.166 F 
ATOM     27  F   UNL     1      31.650   2.472  57.121  1.00  0.00    -0.166 F 
ENDBRANCH  16  24
ENDBRANCH  10  12
ENDBRANCH   1   8
BRANCH   6  28
ATOM     28  N   UNL     1      23.079   4.803  54.345  1.00  0.00    -0.324 N 
ATOM     29  H   UNL     1      22.440   4.210  54.893  1.00  0.00     0.170 HD
BRANCH  28  30
ATOM     30  C   UNL     1      23.402   6.087  54.789  1.00  0.00     0.227 A 
ATOM     31  N   UNL     1      23.221   7.250  54.176  1.00  0.00    -0.221 NA
ATOM     32  N   UNL     1      24.039   5.962  55.982  1.00  0.00    -0.213 NA
ATOM     33  C   UNL     1      23.670   8.347  54.814  1.00  0.00     0.117 A 
ATOM     34  C   UNL     1      24.495   7.078  56.563  1.00  0.00     0.077 A 
ATOM     35  C   UNL     1      24.319   8.287  55.987  1.00  0.00     0.049 A 
BRANCH  34  36
ATOM     36  C   UNL     1      25.153   6.892  57.882  1.00  0.00     0.019 A 
ATOM     37  C   UNL     1      24.415   6.881  59.077  1.00  0.00     0.013 A 
ATOM     38  C   UNL     1      26.550   6.734  57.970  1.00  0.00     0.121 A 
ATOM     39  C   UNL     1      25.086   6.729  60.284  1.00  0.00     0.021 A 
ATOM     40  N   UNL     1      27.203   6.595  59.130  1.00  0.00    -0.264 NA
ATOM     41  C   UNL     1      26.470   6.563  60.255  1.00  0.00     0.111 A 
ENDBRANCH  34  36
ENDBRANCH  28  30
ENDBRANCH   6  28
TORSDOF 7
ENDMDL
MODEL 14
REMARK VINA RESULT:   -10.585      8.252     14.880
REMARK INTER + INTRA:         -14.032
REMARK INTER:                 -12.673
REMARK INTRA:                  -1.359
REMARK CONF_INDEPENDENT:        2.088
REMARK UNBOUND:                -1.359
REMARK SMILES Cc1cn(-c2cc(NC(=O)c3ccc(C)c(Nc4nccc(-c5cccnc5)n4)c3)cc(C(F)(F)F)c2)cn1
REMARK SMILES IDX 11 1 12 2 13 3 14 4 15 5 16 6 30 7 9 8 10 9 8 10 7 12 6 13
REMARK SMILES IDX 31 14 5 15 32 16 37 17 4 18 3 19 38 20 2 21 39 22 1 23 33 24
REMARK SMILES IDX 34 25 35 26 36 27 17 28 18 30 19 31 29 32 20 33 22 34 21 35
REMARK SMILES IDX 23 36 24 37 28 38 25 39 27 40 26 41
REMARK H PARENT 8 11 17 29
ROOT
ATOM      1  C   UNL     1      36.145  -1.577  49.558  1.00  0.00     0.042 A 
ATOM      2  C   UNL     1      35.464  -2.779  49.312  1.00  0.00     0.014 A 
ATOM      3  C   UNL     1      34.072  -2.854  49.387  1.00  0.00     0.006 A 
ATOM      4  C   UNL     1      33.314  -1.766  49.788  1.00  0.00    -0.027 A 
ATOM      5  C   UNL     1      31.798  -1.865  49.872  1.00  0.00     0.046 C 
ATOM      6  C   UNL     1      33.993  -0.598  50.134  1.00  0.00     0.045 A 
ATOM      7  C   UNL     1      35.388  -0.535  50.028  1.00  0.00     0.040 A 
ENDROOT
BRANCH   1   8
ATOM      8  C   UNL     1      37.613  -1.438  49.626  1.00  0.00     0.255 C 
ATOM      9  O   UNL     1      38.021  -0.631  50.425  1.00  0.00    -0.269 OA
ATOM     10  N   UNL     1      38.326  -2.380  48.991  1.00  0.00    -0.322 N 
ATOM     11  H   UNL     1      37.799  -3.083  48.454  1.00  0.00     0.170 HD
BRANCH  10  12
ATOM     12  C   UNL     1      39.711  -2.494  48.991  1.00  0.00     0.044 A 
ATOM     13  C   UNL     1      40.440  -2.501  50.206  1.00  0.00     0.052 A 
ATOM     14  C   UNL     1      40.432  -2.482  47.777  1.00  0.00     0.039 A 
ATOM     15  C   UNL     1      41.832  -2.625  50.217  1.00  0.00     0.049 A 
ATOM     16  C   UNL     1      41.849  -2.631  47.790  1.00  0.00     0.060 A 
ATOM     17  C   UNL     1      42.525  -2.665  49.012  1.00  0.00     0.039 A 
BRANCH  15  18
ATOM     18  N   UNL     1      42.559  -2.676  51.416  1.00  0.00    -0.306 N 
ATOM     19  C   UNL     1      42.610  -3.694  52.367  1.00  0.00     0.116 A 
ATOM     20  C   UNL     1      43.298  -1.695  51.947  1.00  0.00     0.204 A 
ATOM     21  C   UNL     1      43.372  -3.270  53.398  1.00  0.00     0.056 A 
ATOM     22  N   UNL     1      43.820  -2.029  53.102  1.00  0.00    -0.242 NA
ATOM     23  C   UNL     1      43.737  -4.023  54.654  1.00  0.00     0.068 C 
ENDBRANCH  15  18
BRANCH  16  24
ATOM     24  C   UNL     1      42.581  -2.677  46.489  1.00  0.00     0.416 C 
ATOM     25  F   UNL     1      42.182  -3.648  45.644  1.00  0.00    -0.166 F 
ATOM     26  F   UNL     1      42.354  -1.580  45.775  1.00  0.00    -0.166 F 
ATOM     27  F   UNL     1      43.898  -2.923  46.650  1.00  0.00    -0.166 F 
ENDBRANCH  16  24
ENDBRANCH  10  12
ENDBRANCH   1   8
BRANCH   6  28
ATOM     28  N   UNL     1      33.244   0.558  50.385  1.00  0.00    -0.324 N 
ATOM     29  H   UNL     1      32.837   1.093  49.604  1.00  0.00     0.170 HD
BRANCH  28  30
ATOM     30  C   UNL     1      33.053   0.981  51.701  1.00  0.00     0.227 A 
ATOM     31  N   UNL     1      33.728   1.893  52.389  1.00  0.00    -0.221 NA
ATOM     32  N   UNL     1      32.062   0.223  52.238  1.00  0.00    -0.213 NA
ATOM     33  C   UNL     1      33.361   2.079  53.672  1.00  0.00     0.117 A 
ATOM     34  C   UNL     1      31.754   0.422  53.525  1.00  0.00     0.077 A 
ATOM     35  C   UNL     1      32.401   1.351  54.262  1.00  0.00     0.049 A 
BRANCH  34  36
ATOM     36  C   UNL     1      30.640  -0.407  54.054  1.00  0.00     0.019 A 
ATOM     37  C   UNL     1      29.585   0.160  54.787  1.00  0.00     0.013 A 
ATOM     38  C   UNL     1      30.623  -1.800  53.844  1.00  0.00     0.121 A 
ATOM     39  C   UNL     1      28.584  -0.668  55.279  1.00  0.00     0.021 A 
ATOM     40  N   UNL     1      29.664  -2.604  54.323  1.00  0.00    -0.264 NA
ATOM     41  C   UNL     1      28.655  -2.032  54.998  1.00  0.00     0.111 A 
ENDBRANCH  34  36
ENDBRANCH  28  30
ENDBRANCH   6  28
TORSDOF 7
ENDMDL
MODEL 15
REMARK VINA RESULT:   -10.556      5.764     10.888
REMARK INTER + INTRA:         -13.767
REMARK INTER:                 -12.644
REMARK INTRA:                  -1.123
REMARK CONF_INDEPENDENT:        2.088
REMARK UNBOUND:                -1.123
REMARK SMILES Cc1cn(-c2cc(NC(=O)c3ccc(C)c(Nc4nccc(-c5cccnc5)n4)c3)cc(C(F)(F)F)c2)cn1
REMARK SMILES IDX 11 1 12 2 13 3 14 4 15 5 16 6 30 7 9 8 10 9 8 10 7 12 6 13
REMARK SMILES IDX 31 14 5 15 32 16 37 17 4 18 3 19 38 20 2 21 39 22 1 23 33 24
REMARK SMILES IDX 34 25 35 26 36 27 17 28 18 30 19 31 29 32 20 33 22 34 21 35
REMARK SMILES IDX 23 36 24 37 28 38 25 39 27 40 26 41
REMARK H PARENT 8 11 17 29
ROOT
ATOM      1  C   UNL     1      22.340   6.450  55.262  1.00  0.00     0.042 A 
ATOM      2  C   UNL     1      21.587   7.571  54.879  1.00  0.00     0.014 A 
ATOM      3  C   UNL     1      21.116   8.486  55.820  1.00  0.00     0.006 A 
ATOM      4  C   UNL     1      21.301   8.281  57.178  1.00  0.00    -0.027 A 
ATOM      5  C   UNL     1      20.775   9.284  58.194  1.00  0.00     0.046 C 
ATOM      6  C   UNL     1      21.959   7.116  57.571  1.00  0.00     0.045 A 
ATOM      7  C   UNL     1      22.446   6.222  56.609  1.00  0.00     0.040 A 
ENDROOT
BRANCH   1   8
ATOM      8  C   UNL     1      22.767   5.370  54.351  1.00  0.00     0.255 C 
ATOM      9  O   UNL     1      21.889   4.635  53.971  1.00  0.00    -0.269 OA
ATOM     10  N   UNL     1      24.009   5.472  53.854  1.00  0.00    -0.322 N 
ATOM     11  H   UNL     1      24.587   6.253  54.195  1.00  0.00     0.170 HD
BRANCH  10  12
ATOM     12  C   UNL     1      24.587   4.620  52.921  1.00  0.00     0.044 A 
ATOM     13  C   UNL     1      23.853   4.168  51.796  1.00  0.00     0.052 A 
ATOM     14  C   UNL     1      25.877   4.089  53.136  1.00  0.00     0.039 A 
ATOM     15  C   UNL     1      24.429   3.319  50.847  1.00  0.00     0.049 A 
ATOM     16  C   UNL     1      26.470   3.242  52.157  1.00  0.00     0.060 A 
ATOM     17  C   UNL     1      25.722   2.845  51.047  1.00  0.00     0.039 A 
BRANCH  15  18
ATOM     18  N   UNL     1      23.725   2.900  49.708  1.00  0.00    -0.306 N 
ATOM     19  C   UNL     1      22.905   1.785  49.546  1.00  0.00     0.116 A 
ATOM     20  C   UNL     1      23.772   3.451  48.489  1.00  0.00     0.204 A 
ATOM     21  C   UNL     1      22.509   1.735  48.256  1.00  0.00     0.056 A 
ATOM     22  N   UNL     1      23.036   2.804  47.619  1.00  0.00    -0.242 NA
ATOM     23  C   UNL     1      21.600   0.724  47.601  1.00  0.00     0.068 C 
ENDBRANCH  15  18
BRANCH  16  24
ATOM     24  C   UNL     1      27.861   2.742  52.382  1.00  0.00     0.416 C 
ATOM     25  F   UNL     1      28.784   3.222  51.525  1.00  0.00    -0.166 F 
ATOM     26  F   UNL     1      28.332   3.155  53.553  1.00  0.00    -0.166 F 
ATOM     27  F   UNL     1      27.956   1.405  52.229  1.00  0.00    -0.166 F 
ENDBRANCH  16  24
ENDBRANCH  10  12
ENDBRANCH   1   8
BRANCH   6  28
ATOM     28  N   UNL     1      22.301   6.966  58.921  1.00  0.00    -0.324 N 
ATOM     29  H   UNL     1      21.808   6.278  59.508  1.00  0.00     0.170 HD
BRANCH  28  30
ATOM     30  C   UNL     1      23.315   7.758  59.464  1.00  0.00     0.227 A 
ATOM     31  N   UNL     1      23.446   9.078  59.435  1.00  0.00    -0.221 NA
ATOM     32  N   UNL     1      24.247   6.925  59.996  1.00  0.00    -0.213 NA
ATOM     33  C   UNL     1      24.554   9.588  60.005  1.00  0.00     0.117 A 
ATOM     34  C   UNL     1      25.346   7.477  60.522  1.00  0.00     0.077 A 
ATOM     35  C   UNL     1      25.518   8.817  60.532  1.00  0.00     0.049 A 
BRANCH  34  36
ATOM     36  C   UNL     1      26.319   6.527  61.121  1.00  0.00     0.019 A 
ATOM     37  C   UNL     1      26.041   5.849  62.319  1.00  0.00     0.013 A 
ATOM     38  C   UNL     1      27.562   6.291  60.503  1.00  0.00     0.121 A 
ATOM     39  C   UNL     1      26.998   4.991  62.846  1.00  0.00     0.021 A 
ATOM     40  N   UNL     1      28.492   5.472  61.011  1.00  0.00    -0.264 NA
ATOM     41  C   UNL     1      28.190   4.817  62.144  1.00  0.00     0.111 A 
ENDBRANCH  34  36
ENDBRANCH  28  30
ENDBRANCH   6  28
TORSDOF 7
ENDMDL
MODEL 16
REMARK VINA RESULT:   -10.478      5.210      8.114
REMARK INTER + INTRA:         -13.759
REMARK INTER:                 -12.566
REMARK INTRA:                  -1.193
REMARK CONF_INDEPENDENT:        2.088
REMARK UNBOUND:                -1.193
REMARK SMILES Cc1cn(-c2cc(NC(=O)c3ccc(C)c(Nc4nccc(-c5cccnc5)n4)c3)cc(C(F)(F)F)c2)cn1
REMARK SMILES IDX 11 1 12 2 13 3 14 4 15 5 16 6 30 7 9 8 10 9 8 10 7 12 6 13
REMARK SMILES IDX 31 14 5 15 32 16 37 17 4 18 3 19 38 20 2 21 39 22 1 23 33 24
REMARK SMILES IDX 34 25 35 26 36 27 17 28 18 30 19 31 29 32 20 33 22 34 21 35
REMARK SMILES IDX 23 36 24 37 28 38 25 39 27 40 26 41
REMARK H PARENT 8 11 17 29
ROOT
ATOM      1  C   UNL     1      24.452   5.969  54.140  1.00  0.00     0.042 A 
ATOM      2  C   UNL     1      23.843   6.655  53.079  1.00  0.00     0.014 A 
ATOM      3  C   UNL     1      23.717   6.075  51.816  1.00  0.00     0.006 A 
ATOM      4  C   UNL     1      24.263   4.832  51.538  1.00  0.00    -0.027 A 
ATOM      5  C   UNL     1      24.125   4.215  50.154  1.00  0.00     0.046 C 
ATOM      6  C   UNL     1      24.960   4.190  52.560  1.00  0.00     0.045 A 
ATOM      7  C   UNL     1      25.053   4.777  53.828  1.00  0.00     0.040 A 
ENDROOT
BRANCH   1   8
ATOM      8  C   UNL     1      24.740   6.551  55.466  1.00  0.00     0.255 C 
ATOM      9  O   UNL     1      25.733   7.234  55.528  1.00  0.00    -0.269 OA
ATOM     10  N   UNL     1      23.755   6.471  56.374  1.00  0.00    -0.322 N 
ATOM     11  H   UNL     1      22.907   5.955  56.099  1.00  0.00     0.170 HD
BRANCH  10  12
ATOM     12  C   UNL     1      23.775   7.020  57.650  1.00  0.00     0.044 A 
ATOM     13  C   UNL     1      24.730   6.598  58.608  1.00  0.00     0.052 A 
ATOM     14  C   UNL     1      22.768   7.921  58.059  1.00  0.00     0.039 A 
ATOM     15  C   UNL     1      24.764   7.152  59.891  1.00  0.00     0.049 A 
ATOM     16  C   UNL     1      22.818   8.501  59.359  1.00  0.00     0.060 A 
ATOM     17  C   UNL     1      23.796   8.079  60.263  1.00  0.00     0.039 A 
BRANCH  15  18
ATOM     18  N   UNL     1      25.732   6.772  60.833  1.00  0.00    -0.306 N 
ATOM     19  C   UNL     1      25.942   5.525  61.418  1.00  0.00     0.116 A 
ATOM     20  C   UNL     1      26.613   7.573  61.443  1.00  0.00     0.204 A 
ATOM     21  C   UNL     1      26.930   5.649  62.332  1.00  0.00     0.056 A 
ATOM     22  N   UNL     1      27.358   6.931  62.309  1.00  0.00    -0.242 NA
ATOM     23  C   UNL     1      27.525   4.573  63.207  1.00  0.00     0.068 C 
ENDBRANCH  15  18
BRANCH  16  24
ATOM     24  C   UNL     1      21.774   9.498  59.745  1.00  0.00     0.416 C 
ATOM     25  F   UNL     1      20.733   9.591  58.894  1.00  0.00    -0.166 F 
ATOM     26  F   UNL     1      21.175   9.148  60.876  1.00  0.00    -0.166 F 
ATOM     27  F   UNL     1      22.258  10.757  59.786  1.00  0.00    -0.166 F 
ENDBRANCH  16  24
ENDBRANCH  10  12
ENDBRANCH   1   8
BRANCH   6  28
ATOM     28  N   UNL     1      25.378   2.869  52.354  1.00  0.00    -0.324 N 
ATOM     29  H   UNL     1      24.697   2.097  52.389  1.00  0.00     0.170 HD
BRANCH  28  30
ATOM     30  C   UNL     1      26.726   2.607  52.101  1.00  0.00     0.227 A 
ATOM     31  N   UNL     1      27.551   3.222  51.263  1.00  0.00    -0.221 NA
ATOM     32  N   UNL     1      27.076   1.513  52.825  1.00  0.00    -0.213 NA
ATOM     33  C   UNL     1      28.803   2.735  51.179  1.00  0.00     0.117 A 
ATOM     34  C   UNL     1      28.322   1.046  52.684  1.00  0.00     0.077 A 
ATOM     35  C   UNL     1      29.204   1.648  51.857  1.00  0.00     0.049 A 
BRANCH  34  36
ATOM     36  C   UNL     1      28.666  -0.131  53.524  1.00  0.00     0.019 A 
ATOM     37  C   UNL     1      27.891  -0.491  54.638  1.00  0.00     0.013 A 
ATOM     38  C   UNL     1      29.799  -0.914  53.229  1.00  0.00     0.121 A 
ATOM     39  C   UNL     1      28.275  -1.586  55.402  1.00  0.00     0.021 A 
ATOM     40  N   UNL     1      30.179  -1.966  53.966  1.00  0.00    -0.264 NA
ATOM     41  C   UNL     1      29.405  -2.303  55.011  1.00  0.00     0.111 A 
ENDBRANCH  34  36
ENDBRANCH  28  30
ENDBRANCH   6  28
TORSDOF 7
ENDMDL
MODEL 17
REMARK VINA RESULT:   -10.320      4.429     10.883
REMARK INTER + INTRA:         -13.619
REMARK INTER:                 -12.408
REMARK INTRA:                  -1.211
REMARK CONF_INDEPENDENT:        2.088
REMARK UNBOUND:                -1.211
REMARK SMILES Cc1cn(-c2cc(NC(=O)c3ccc(C)c(Nc4nccc(-c5cccnc5)n4)c3)cc(C(F)(F)F)c2)cn1
REMARK SMILES IDX 11 1 12 2 13 3 14 4 15 5 16 6 30 7 9 8 10 9 8 10 7 12 6 13
REMARK SMILES IDX 31 14 5 15 32 16 37 17 4 18 3 19 38 20 2 21 39 22 1 23 33 24
REMARK SMILES IDX 34 25 35 26 36 27 17 28 18 30 19 31 29 32 20 33 22 34 21 35
REMARK SMILES IDX 23 36 24 37 28 38 25 39 27 40 26 41
REMARK H PARENT 8 11 17 29
ROOT
ATOM      1  C   UNL     1      22.430   6.879  55.644  1.00  0.00     0.042 A 
ATOM      2  C   UNL     1      21.677   8.008  55.289  1.00  0.00     0.014 A 
ATOM      3  C   UNL     1      21.177   8.881  56.256  1.00  0.00     0.006 A 
ATOM      4  C   UNL     1      21.334   8.623  57.608  1.00  0.00    -0.027 A 
ATOM      5  C   UNL     1      20.777   9.580  58.651  1.00  0.00     0.046 C 
ATOM      6  C   UNL     1      21.992   7.448  57.968  1.00  0.00     0.045 A 
ATOM      7  C   UNL     1      22.509   6.597  56.983  1.00  0.00     0.040 A 
ENDROOT
BRANCH   1   8
ATOM      8  C   UNL     1      22.887   5.839  54.701  1.00  0.00     0.255 C 
ATOM      9  O   UNL     1      22.283   4.796  54.748  1.00  0.00    -0.269 OA
ATOM     10  N   UNL     1      23.734   6.242  53.741  1.00  0.00    -0.322 N 
ATOM     11  H   UNL     1      24.049   7.221  53.776  1.00  0.00     0.170 HD
BRANCH  10  12
ATOM     12  C   UNL     1      24.224   5.458  52.704  1.00  0.00     0.044 A 
ATOM     13  C   UNL     1      25.256   4.513  52.932  1.00  0.00     0.052 A 
ATOM     14  C   UNL     1      23.790   5.669  51.377  1.00  0.00     0.039 A 
ATOM     15  C   UNL     1      25.748   3.713  51.897  1.00  0.00     0.049 A 
ATOM     16  C   UNL     1      24.277   4.838  50.329  1.00  0.00     0.060 A 
ATOM     17  C   UNL     1      25.273   3.898  50.603  1.00  0.00     0.039 A 
BRANCH  15  18
ATOM     18  N   UNL     1      26.740   2.746  52.120  1.00  0.00    -0.306 N 
ATOM     19  C   UNL     1      26.931   1.928  53.232  1.00  0.00     0.116 A 
ATOM     20  C   UNL     1      27.783   2.471  51.329  1.00  0.00     0.204 A 
ATOM     21  C   UNL     1      28.062   1.214  53.042  1.00  0.00     0.056 A 
ATOM     22  N   UNL     1      28.563   1.545  51.831  1.00  0.00    -0.242 NA
ATOM     23  C   UNL     1      28.673   0.181  53.958  1.00  0.00     0.068 C 
ENDBRANCH  15  18
BRANCH  16  24
ATOM     24  C   UNL     1      23.756   5.043  48.943  1.00  0.00     0.416 C 
ATOM     25  F   UNL     1      24.381   6.006  48.236  1.00  0.00    -0.166 F 
ATOM     26  F   UNL     1      23.964   3.970  48.191  1.00  0.00    -0.166 F 
ATOM     27  F   UNL     1      22.465   5.436  48.934  1.00  0.00    -0.166 F 
ENDBRANCH  16  24
ENDBRANCH  10  12
ENDBRANCH   1   8
BRANCH   6  28
ATOM     28  N   UNL     1      22.305   7.247  59.319  1.00  0.00    -0.324 N 
ATOM     29  H   UNL     1      21.750   6.594  59.889  1.00  0.00     0.170 HD
BRANCH  28  30
ATOM     30  C   UNL     1      23.377   7.940  59.886  1.00  0.00     0.227 A 
ATOM     31  N   UNL     1      23.599   9.248  59.917  1.00  0.00    -0.221 NA
ATOM     32  N   UNL     1      24.254   7.021  60.366  1.00  0.00    -0.213 NA
ATOM     33  C   UNL     1      24.745   9.653  60.496  1.00  0.00     0.117 A 
ATOM     34  C   UNL     1      25.393   7.471  60.904  1.00  0.00     0.077 A 
ATOM     35  C   UNL     1      25.658   8.793  60.975  1.00  0.00     0.049 A 
BRANCH  34  36
ATOM     36  C   UNL     1      26.303   6.428  61.446  1.00  0.00     0.019 A 
ATOM     37  C   UNL     1      26.397   6.178  62.824  1.00  0.00     0.013 A 
ATOM     38  C   UNL     1      27.114   5.667  60.581  1.00  0.00     0.121 A 
ATOM     39  C   UNL     1      27.283   5.208  63.276  1.00  0.00     0.021 A 
ATOM     40  N   UNL     1      27.976   4.736  61.011  1.00  0.00    -0.264 NA
ATOM     41  C   UNL     1      28.027   4.500  62.332  1.00  0.00     0.111 A 
ENDBRANCH  34  36
ENDBRANCH  28  30
ENDBRANCH   6  28
TORSDOF 7
ENDMDL
MODEL 18
REMARK VINA RESULT:   -10.294      3.454     11.139
REMARK INTER + INTRA:         -13.693
REMARK INTER:                 -12.382
REMARK INTRA:                  -1.311
REMARK CONF_INDEPENDENT:        2.088
REMARK UNBOUND:                -1.311
REMARK SMILES Cc1cn(-c2cc(NC(=O)c3ccc(C)c(Nc4nccc(-c5cccnc5)n4)c3)cc(C(F)(F)F)c2)cn1
REMARK SMILES IDX 11 1 12 2 13 3 14 4 15 5 16 6 30 7 9 8 10 9 8 10 7 12 6 13
REMARK SMILES IDX 31 14 5 15 32 16 37 17 4 18 3 19 38 20 2 21 39 22 1 23 33 24
REMARK SMILES IDX 34 25 35 26 36 27 17 28 18 30 19 31 29 32 20 33 22 34 21 35
REMARK SMILES IDX 23 36 24 37 28 38 25 39 27 40 26 41
REMARK H PARENT 8 11 17 29
ROOT
ATOM      1  C   UNL     1      25.591   3.797  51.153  1.00  0.00     0.042 A 
ATOM      2  C   UNL     1      25.327   3.598  49.790  1.00  0.00     0.014 A 
ATOM      3  C   UNL     1      24.399   4.386  49.106  1.00  0.00     0.006 A 
ATOM      4  C   UNL     1      23.642   5.340  49.767  1.00  0.00    -0.027 A 
ATOM      5  C   UNL     1      22.629   6.187  49.010  1.00  0.00     0.046 C 
ATOM      6  C   UNL     1      23.826   5.472  51.142  1.00  0.00     0.045 A 
ATOM      7  C   UNL     1      24.779   4.689  51.805  1.00  0.00     0.040 A 
ENDROOT
BRANCH   1   8
ATOM      8  C   UNL     1      26.457   2.933  51.980  1.00  0.00     0.255 C 
ATOM      9  O   UNL     1      26.052   2.707  53.094  1.00  0.00    -0.269 OA
ATOM     10  N   UNL     1      27.448   2.299  51.335  1.00  0.00    -0.322 N 
ATOM     11  H   UNL     1      27.569   2.515  50.335  1.00  0.00     0.170 HD
BRANCH  10  12
ATOM     12  C   UNL     1      28.327   1.379  51.893  1.00  0.00     0.044 A 
ATOM     13  C   UNL     1      29.489   0.969  51.195  1.00  0.00     0.052 A 
ATOM     14  C   UNL     1      28.019   0.742  53.115  1.00  0.00     0.039 A 
ATOM     15  C   UNL     1      30.385   0.051  51.752  1.00  0.00     0.049 A 
ATOM     16  C   UNL     1      28.943  -0.175  53.691  1.00  0.00     0.060 A 
ATOM     17  C   UNL     1      30.093  -0.530  52.982  1.00  0.00     0.039 A 
BRANCH  15  18
ATOM     18  N   UNL     1      31.560  -0.330  51.088  1.00  0.00    -0.306 N 
ATOM     19  C   UNL     1      32.837   0.220  51.182  1.00  0.00     0.116 A 
ATOM     20  C   UNL     1      31.675  -1.264  50.137  1.00  0.00     0.204 A 
ATOM     21  C   UNL     1      33.636  -0.413  50.295  1.00  0.00     0.056 A 
ATOM     22  N   UNL     1      32.898  -1.360  49.674  1.00  0.00    -0.242 NA
ATOM     23  C   UNL     1      35.106  -0.184  50.041  1.00  0.00     0.068 C 
ENDBRANCH  15  18
BRANCH  16  24
ATOM     24  C   UNL     1      28.620  -0.789  55.015  1.00  0.00     0.416 C 
ATOM     25  F   UNL     1      27.676  -1.751  54.981  1.00  0.00    -0.166 F 
ATOM     26  F   UNL     1      29.665  -1.446  55.504  1.00  0.00    -0.166 F 
ATOM     27  F   UNL     1      28.120   0.109  55.889  1.00  0.00    -0.166 F 
ENDBRANCH  16  24
ENDBRANCH  10  12
ENDBRANCH   1   8
BRANCH   6  28
ATOM     28  N   UNL     1      23.194   6.535  51.800  1.00  0.00    -0.324 N 
ATOM     29  H   UNL     1      23.005   7.416  51.302  1.00  0.00     0.170 HD
BRANCH  28  30
ATOM     30  C   UNL     1      22.822   6.390  53.138  1.00  0.00     0.227 A 
ATOM     31  N   UNL     1      21.611   6.212  53.651  1.00  0.00    -0.221 NA
ATOM     32  N   UNL     1      23.939   6.545  53.896  1.00  0.00    -0.213 NA
ATOM     33  C   UNL     1      21.525   6.146  54.993  1.00  0.00     0.117 A 
ATOM     34  C   UNL     1      23.799   6.504  55.226  1.00  0.00     0.077 A 
ATOM     35  C   UNL     1      22.590   6.307  55.795  1.00  0.00     0.049 A 
BRANCH  34  36
ATOM     36  C   UNL     1      25.055   6.642  56.008  1.00  0.00     0.019 A 
ATOM     37  C   UNL     1      26.313   6.426  55.424  1.00  0.00     0.013 A 
ATOM     38  C   UNL     1      25.012   6.983  57.374  1.00  0.00     0.121 A 
ATOM     39  C   UNL     1      27.452   6.545  56.210  1.00  0.00     0.021 A 
ATOM     40  N   UNL     1      26.106   7.092  58.139  1.00  0.00    -0.264 NA
ATOM     41  C   UNL     1      27.298   6.905  57.549  1.00  0.00     0.111 A 
ENDBRANCH  34  36
ENDBRANCH  28  30
ENDBRANCH   6  28
TORSDOF 7
ENDMDL
MODEL 19
REMARK VINA RESULT:   -10.285      8.364     14.808
REMARK INTER + INTRA:         -13.688
REMARK INTER:                 -12.373
REMARK INTRA:                  -1.315
REMARK CONF_INDEPENDENT:        2.088
REMARK UNBOUND:                -1.315
REMARK SMILES Cc1cn(-c2cc(NC(=O)c3ccc(C)c(Nc4nccc(-c5cccnc5)n4)c3)cc(C(F)(F)F)c2)cn1
REMARK SMILES IDX 11 1 12 2 13 3 14 4 15 5 16 6 30 7 9 8 10 9 8 10 7 12 6 13
REMARK SMILES IDX 31 14 5 15 32 16 37 17 4 18 3 19 38 20 2 21 39 22 1 23 33 24
REMARK SMILES IDX 34 25 35 26 36 27 17 28 18 30 19 31 29 32 20 33 22 34 21 35
REMARK SMILES IDX 23 36 24 37 28 38 25 39 27 40 26 41
REMARK H PARENT 8 11 17 29
ROOT
ATOM      1  C   UNL     1      36.009  -1.575  49.158  1.00  0.00     0.042 A 
ATOM      2  C   UNL     1      35.290  -2.778  49.087  1.00  0.00     0.014 A 
ATOM      3  C   UNL     1      33.929  -2.830  49.392  1.00  0.00     0.006 A 
ATOM      4  C   UNL     1      33.253  -1.712  49.857  1.00  0.00    -0.027 A 
ATOM      5  C   UNL     1      31.771  -1.786  50.193  1.00  0.00     0.046 C 
ATOM      6  C   UNL     1      33.987  -0.539  50.028  1.00  0.00     0.045 A 
ATOM      7  C   UNL     1      35.346  -0.501  49.692  1.00  0.00     0.040 A 
ENDROOT
BRANCH   1   8
ATOM      8  C   UNL     1      37.469  -1.454  48.977  1.00  0.00     0.255 C 
ATOM      9  O   UNL     1      38.078  -1.048  49.936  1.00  0.00    -0.269 OA
ATOM     10  N   UNL     1      37.980  -2.035  47.881  1.00  0.00    -0.322 N 
ATOM     11  H   UNL     1      37.312  -2.459  47.222  1.00  0.00     0.170 HD
BRANCH  10  12
ATOM     12  C   UNL     1      39.327  -2.117  47.554  1.00  0.00     0.044 A 
ATOM     13  C   UNL     1      40.138  -0.955  47.513  1.00  0.00     0.052 A 
ATOM     14  C   UNL     1      39.892  -3.342  47.136  1.00  0.00     0.039 A 
ATOM     15  C   UNL     1      41.497  -1.029  47.195  1.00  0.00     0.049 A 
ATOM     16  C   UNL     1      41.281  -3.419  46.834  1.00  0.00     0.060 A 
ATOM     17  C   UNL     1      42.051  -2.253  46.836  1.00  0.00     0.039 A 
BRANCH  15  18
ATOM     18  N   UNL     1      42.317   0.110  47.193  1.00  0.00    -0.306 N 
ATOM     19  C   UNL     1      42.103   1.344  47.804  1.00  0.00     0.116 A 
ATOM     20  C   UNL     1      43.457   0.275  46.512  1.00  0.00     0.204 A 
ATOM     21  C   UNL     1      43.118   2.166  47.461  1.00  0.00     0.056 A 
ATOM     22  N   UNL     1      43.972   1.469  46.679  1.00  0.00    -0.242 NA
ATOM     23  C   UNL     1      43.340   3.597  47.890  1.00  0.00     0.068 C 
ENDBRANCH  15  18
BRANCH  16  24
ATOM     24  C   UNL     1      41.865  -4.740  46.453  1.00  0.00     0.416 C 
ATOM     25  F   UNL     1      40.963  -5.706  46.187  1.00  0.00    -0.166 F 
ATOM     26  F   UNL     1      42.525  -4.657  45.303  1.00  0.00    -0.166 F 
ATOM     27  F   UNL     1      42.614  -5.274  47.440  1.00  0.00    -0.166 F 
ENDBRANCH  16  24
ENDBRANCH  10  12
ENDBRANCH   1   8
BRANCH   6  28
ATOM     28  N   UNL     1      33.296   0.639  50.339  1.00  0.00    -0.324 N 
ATOM     29  H   UNL     1      32.904   1.225  49.588  1.00  0.00     0.170 HD
BRANCH  28  30
ATOM     30  C   UNL     1      33.143   1.013  51.676  1.00  0.00     0.227 A 
ATOM     31  N   UNL     1      33.863   1.870  52.388  1.00  0.00    -0.221 NA
ATOM     32  N   UNL     1      32.134   0.270  52.198  1.00  0.00    -0.213 NA
ATOM     33  C   UNL     1      33.525   2.015  53.683  1.00  0.00     0.117 A 
ATOM     34  C   UNL     1      31.856   0.425  53.498  1.00  0.00     0.077 A 
ATOM     35  C   UNL     1      32.548   1.298  54.261  1.00  0.00     0.049 A 
BRANCH  34  36
ATOM     36  C   UNL     1      30.721  -0.385  54.013  1.00  0.00     0.019 A 
ATOM     37  C   UNL     1      29.632   0.210  54.669  1.00  0.00     0.013 A 
ATOM     38  C   UNL     1      30.718  -1.786  53.868  1.00  0.00     0.121 A 
ATOM     39  C   UNL     1      28.611  -0.600  55.153  1.00  0.00     0.021 A 
ATOM     40  N   UNL     1      29.741  -2.572  54.338  1.00  0.00    -0.264 NA
ATOM     41  C   UNL     1      28.699  -1.975  54.939  1.00  0.00     0.111 A 
ENDBRANCH  34  36
ENDBRANCH  28  30
ENDBRANCH   6  28
TORSDOF 7
ENDMDL
MODEL 20
REMARK VINA RESULT:    -9.620      4.349     10.527
REMARK INTER + INTRA:         -13.610
REMARK INTER:                 -11.708
REMARK INTRA:                  -1.902
REMARK CONF_INDEPENDENT:        2.088
REMARK UNBOUND:                -1.902
REMARK SMILES Cc1cn(-c2cc(NC(=O)c3ccc(C)c(Nc4nccc(-c5cccnc5)n4)c3)cc(C(F)(F)F)c2)cn1
REMARK SMILES IDX 11 1 12 2 13 3 14 4 15 5 16 6 30 7 9 8 10 9 8 10 7 12 6 13
REMARK SMILES IDX 31 14 5 15 32 16 37 17 4 18 3 19 38 20 2 21 39 22 1 23 33 24
REMARK SMILES IDX 34 25 35 26 36 27 17 28 18 30 19 31 29 32 20 33 22 34 21 35
REMARK SMILES IDX 23 36 24 37 28 38 25 39 27 40 26 41
REMARK H PARENT 8 11 17 29
ROOT
ATOM      1  C   UNL     1      21.829   7.972  53.365  1.00  0.00     0.042 A 
ATOM      2  C   UNL     1      21.289   9.260  53.238  1.00  0.00     0.014 A 
ATOM      3  C   UNL     1      20.523   9.831  54.256  1.00  0.00     0.006 A 
ATOM      4  C   UNL     1      20.196   9.115  55.397  1.00  0.00    -0.027 A 
ATOM      5  C   UNL     1      19.354   9.747  56.495  1.00  0.00     0.046 C 
ATOM      6  C   UNL     1      20.643   7.797  55.483  1.00  0.00     0.045 A 
ATOM      7  C   UNL     1      21.432   7.252  54.462  1.00  0.00     0.040 A 
ENDROOT
BRANCH   1   8
ATOM      8  C   UNL     1      22.539   7.246  52.294  1.00  0.00     0.255 C 
ATOM      9  O   UNL     1      22.812   7.900  51.317  1.00  0.00    -0.269 OA
ATOM     10  N   UNL     1      23.020   6.036  52.617  1.00  0.00    -0.322 N 
ATOM     11  H   UNL     1      22.800   5.682  53.558  1.00  0.00     0.170 HD
BRANCH  10  12
ATOM     12  C   UNL     1      23.787   5.217  51.797  1.00  0.00     0.044 A 
ATOM     13  C   UNL     1      24.935   4.556  52.300  1.00  0.00     0.052 A 
ATOM     14  C   UNL     1      23.510   5.122  50.416  1.00  0.00     0.039 A 
ATOM     15  C   UNL     1      25.707   3.722  51.486  1.00  0.00     0.049 A 
ATOM     16  C   UNL     1      24.284   4.254  49.594  1.00  0.00     0.060 A 
ATOM     17  C   UNL     1      25.390   3.597  50.137  1.00  0.00     0.039 A 
BRANCH  15  18
ATOM     18  N   UNL     1      26.820   3.029  51.984  1.00  0.00    -0.306 N 
ATOM     19  C   UNL     1      27.220   2.850  53.307  1.00  0.00     0.116 A 
ATOM     20  C   UNL     1      27.799   2.464  51.268  1.00  0.00     0.204 A 
ATOM     21  C   UNL     1      28.399   2.190  53.307  1.00  0.00     0.056 A 
ATOM     22  N   UNL     1      28.728   1.930  52.022  1.00  0.00    -0.242 NA
ATOM     23  C   UNL     1      29.217   1.749  54.496  1.00  0.00     0.068 C 
ENDBRANCH  15  18
BRANCH  16  24
ATOM     24  C   UNL     1      23.931   4.126  48.147  1.00  0.00     0.416 C 
ATOM     25  F   UNL     1      22.623   3.915  47.897  1.00  0.00    -0.166 F 
ATOM     26  F   UNL     1      24.155   5.263  47.499  1.00  0.00    -0.166 F 
ATOM     27  F   UNL     1      24.536   3.071  47.563  1.00  0.00    -0.166 F 
ENDBRANCH  16  24
ENDBRANCH  10  12
ENDBRANCH   1   8
BRANCH   6  28
ATOM     28  N   UNL     1      20.466   7.110  56.690  1.00  0.00    -0.324 N 
ATOM     29  H   UNL     1      19.646   6.502  56.826  1.00  0.00     0.170 HD
BRANCH  28  30
ATOM     30  C   UNL     1      21.410   7.257  57.709  1.00  0.00     0.227 A 
ATOM     31  N   UNL     1      21.219   7.591  58.979  1.00  0.00    -0.221 NA
ATOM     32  N   UNL     1      22.639   7.072  57.161  1.00  0.00    -0.213 NA
ATOM     33  C   UNL     1      22.319   7.706  59.747  1.00  0.00     0.117 A 
ATOM     34  C   UNL     1      23.704   7.228  57.956  1.00  0.00     0.077 A 
ATOM     35  C   UNL     1      23.561   7.550  59.260  1.00  0.00     0.049 A 
BRANCH  34  36
ATOM     36  C   UNL     1      25.023   6.980  57.319  1.00  0.00     0.019 A 
ATOM     37  C   UNL     1      25.154   6.850  55.927  1.00  0.00     0.013 A 
ATOM     38  C   UNL     1      26.185   6.854  58.105  1.00  0.00     0.121 A 
ATOM     39  C   UNL     1      26.409   6.593  55.388  1.00  0.00     0.021 A 
ATOM     40  N   UNL     1      27.396   6.599  57.592  1.00  0.00    -0.264 NA
ATOM     41  C   UNL     1      27.497   6.504  56.256  1.00  0.00     0.111 A 
ENDBRANCH  34  36
ENDBRANCH  28  30
ENDBRANCH   6  28
TORSDOF 7
ENDMDL
